# Probe 0 (-74 -92 2)
# Probe 1 (-74 -88.981 2)
# Probe 2 (-74 -85.962 2)
# Probe 3 (-74 -82.942 2)
# Probe 4 (-74 -79.923 2)
# Probe 5 (-74 -76.904 2)
# Probe 6 (-74 -73.885 2)
# Probe 7 (-74 -70.865 2)
# Probe 8 (-74 -67.846 2)
# Probe 9 (-74 -64.827 2)
# Probe 10 (-74 -61.808 2)
# Probe 11 (-74 -58.788 2)
# Probe 12 (-74 -55.769 2)
# Probe 13 (-74 -52.75 2)
# Probe 14 (-74 -49.731 2)
# Probe 15 (-74 -46.712 2)
# Probe 16 (-74 -43.692 2)
# Probe 17 (-74 -40.673 2)
# Probe 18 (-74 -37.654 2)
# Probe 19 (-74 -34.635 2)
# Probe 20 (-74 -31.615 2)
# Probe 21 (-74 -28.596 2)
# Probe 22 (-74 -25.577 2)
# Probe 23 (-74 -22.558 2)
# Probe 24 (-74 -19.538 2)
# Probe 25 (-74 -16.519 2)
# Probe 26 (-74 -13.5 2)
# Probe 27 (-74 -10.481 2)
# Probe 28 (-74 -7.462 2)
# Probe 29 (-74 -4.442 2)
# Probe 30 (-74 -1.423 2)
# Probe 31 (-74 1.596 2)
# Probe 32 (-74 4.615 2)
# Probe 33 (-74 7.635 2)
# Probe 34 (-74 10.654 2)
# Probe 35 (-74 13.673 2)
# Probe 36 (-74 16.692 2)
# Probe 37 (-74 19.712 2)
# Probe 38 (-74 22.731 2)
# Probe 39 (-74 25.75 2)
# Probe 40 (-74 28.769 2)
# Probe 41 (-74 31.788 2)
# Probe 42 (-74 34.808 2)
# Probe 43 (-74 37.827 2)
# Probe 44 (-74 40.846 2)
# Probe 45 (-74 43.865 2)
# Probe 46 (-74 46.885 2)
# Probe 47 (-74 49.904 2)
# Probe 48 (-74 52.923 2)
# Probe 49 (-74 55.942 2)
# Probe 50 (-74 58.962 2)
# Probe 51 (-74 61.981 2)
# Probe 52 (-74 65 2)
# Probe 53 (-70.982 -92 2)
# Probe 54 (-70.982 -88.981 2)
# Probe 55 (-70.982 -85.962 2)
# Probe 56 (-70.982 -82.942 2)
# Probe 57 (-70.982 -79.923 2)
# Probe 58 (-70.982 -76.904 2)
# Probe 59 (-70.982 -73.885 2)
# Probe 60 (-70.982 -70.865 2)
# Probe 61 (-70.982 -67.846 2)
# Probe 62 (-70.982 -64.827 2)
# Probe 63 (-70.982 -61.808 2)
# Probe 64 (-70.982 -58.788 2)
# Probe 65 (-70.982 -55.769 2)
# Probe 66 (-70.982 -52.75 2)
# Probe 67 (-70.982 -49.731 2)
# Probe 68 (-70.982 -46.712 2)
# Probe 69 (-70.982 -43.692 2)
# Probe 70 (-70.982 -40.673 2)
# Probe 71 (-70.982 -37.654 2)
# Probe 72 (-70.982 -34.635 2)
# Probe 73 (-70.982 -31.615 2)
# Probe 74 (-70.982 -28.596 2)
# Probe 75 (-70.982 -25.577 2)
# Probe 76 (-70.982 -22.558 2)
# Probe 77 (-70.982 -19.538 2)
# Probe 78 (-70.982 -16.519 2)
# Probe 79 (-70.982 -13.5 2)
# Probe 80 (-70.982 -10.481 2)
# Probe 81 (-70.982 -7.462 2)
# Probe 82 (-70.982 -4.442 2)
# Probe 83 (-70.982 -1.423 2)
# Probe 84 (-70.982 1.596 2)
# Probe 85 (-70.982 4.615 2)
# Probe 86 (-70.982 7.635 2)
# Probe 87 (-70.982 10.654 2)
# Probe 88 (-70.982 13.673 2)
# Probe 89 (-70.982 16.692 2)
# Probe 90 (-70.982 19.712 2)
# Probe 91 (-70.982 22.731 2)
# Probe 92 (-70.982 25.75 2)
# Probe 93 (-70.982 28.769 2)
# Probe 94 (-70.982 31.788 2)
# Probe 95 (-70.982 34.808 2)
# Probe 96 (-70.982 37.827 2)
# Probe 97 (-70.982 40.846 2)
# Probe 98 (-34.768 -43.692 2)
# Probe 99 (-34.768 -40.673 2)
# Probe 100 (-34.768 -37.654 2)
# Probe 101 (-34.768 -34.635 2)
# Probe 102 (-34.768 -31.615 2)
# Probe 103 (13.518 -64.827 2)
# Probe 104 (-34.768 -28.596 2)
# Probe 105 (13.518 -61.808 2)
# Probe 106 (-34.768 -25.577 2)
# Probe 107 (13.518 -58.788 2)
# Probe 108 (-34.768 -22.558 2)
# Probe 109 (13.518 -55.769 2)
# Probe 110 (-34.768 -19.538 2)
# Probe 111 (13.518 -52.75 2)
# Probe 112 (-34.768 -16.519 2)
# Probe 113 (13.518 -49.731 2)
# Probe 114 (-34.768 -13.5 2)
# Probe 115 (13.518 -46.712 2)
# Probe 116 (-34.768 -10.481 2)
# Probe 117 (13.518 -43.692 2)
# Probe 118 (-34.768 -7.462 2)
# Probe 119 (13.518 -40.673 2)
# Probe 120 (-34.768 -4.442 2)
# Probe 121 (13.518 -37.654 2)
# Probe 122 (-34.768 -1.423 2)
# Probe 123 (55.768 -25.577 2)
# Probe 124 (13.518 -34.635 2)
# Probe 125 (55.768 -10.481 2)
# Probe 126 (-34.768 1.596 2)
# Probe 127 (13.518 -31.615 2)
# Probe 128 (55.768 -7.462 2)
# Probe 129 (-34.768 4.615 2)
# Probe 130 (13.518 -28.596 2)
# Probe 131 (55.768 -4.442 2)
# Probe 132 (-34.768 7.635 2)
# Probe 133 (13.518 -25.577 2)
# Probe 134 (55.768 -1.423 2)
# Probe 135 (-34.768 10.654 2)
# Probe 136 (13.518 -22.558 2)
# Probe 137 (55.768 1.596 2)
# Probe 138 (-34.768 13.673 2)
# Probe 139 (13.518 -19.538 2)
# Probe 140 (55.768 4.615 2)
# Probe 141 (-34.768 16.692 2)
# Probe 142 (13.518 -16.519 2)
# Probe 143 (55.768 7.635 2)
# Probe 144 (-34.768 19.712 2)
# Probe 145 (13.518 -13.5 2)
# Probe 146 (55.768 10.654 2)
# Probe 147 (-34.768 22.731 2)
# Probe 148 (13.518 -10.481 2)
# Probe 149 (55.768 13.673 2)
# Probe 150 (-34.768 25.75 2)
# Probe 151 (13.518 -7.462 2)
# Probe 152 (55.768 16.692 2)
# Probe 153 (13.518 -4.442 2)
# Probe 154 (-34.768 28.769 2)
# Probe 155 (55.768 19.712 2)
# Probe 156 (13.518 -1.423 2)
# Probe 157 (-34.768 31.788 2)
# Probe 158 (55.768 22.731 2)
# Probe 159 (13.518 19.712 2)
# Probe 160 (-34.768 34.808 2)
# Probe 161 (55.768 25.75 2)
# Probe 162 (13.518 22.731 2)
# Probe 163 (-34.768 37.827 2)
# Probe 164 (55.768 28.769 2)
# Probe 165 (-34.768 40.846 2)
# Probe 166 (55.768 31.788 2)
# Probe 167 (13.518 25.75 2)
# Probe 168 (-34.768 43.865 2)
# Probe 169 (55.768 34.808 2)
# Probe 170 (13.518 28.769 2)
# Probe 171 (-34.768 46.885 2)
# Probe 172 (55.768 37.827 2)
# Probe 173 (13.518 31.788 2)
# Probe 174 (-34.768 49.904 2)
# Probe 175 (55.768 40.846 2)
# Probe 176 (13.518 34.808 2)
# Probe 177 (-34.768 52.923 2)
# Probe 178 (55.768 43.865 2)
# Probe 179 (13.518 37.827 2)
# Probe 180 (-34.768 55.942 2)
# Probe 181 (55.768 46.885 2)
# Probe 182 (13.518 40.846 2)
# Probe 183 (-34.768 58.962 2)
# Probe 184 (55.768 49.904 2)
# Probe 185 (13.518 43.865 2)
# Probe 186 (-34.768 61.981 2)
# Probe 187 (55.768 52.923 2)
# Probe 188 (13.518 46.885 2)
# Probe 189 (13.518 49.904 2)
# Probe 190 (55.768 55.942 2)
# Probe 191 (-34.768 65 2)
# Probe 192 (13.518 52.923 2)
# Probe 193 (55.768 58.962 2)
# Probe 194 (-31.75 -92 2)
# Probe 195 (-31.75 -88.981 2)
# Probe 196 (-31.75 -85.962 2)
# Probe 197 (13.518 55.942 2)
# Probe 198 (13.518 58.962 2)
# Probe 199 (-31.75 -82.942 2)
# Probe 200 (13.518 61.981 2)
# Probe 201 (-31.75 -79.923 2)
# Probe 202 (13.518 65 2)
# Probe 203 (-31.75 -76.904 2)
# Probe 204 (-70.982 43.865 2)
# Probe 205 (16.536 -92 2)
# Probe 206 (-31.75 -73.885 2)
# Probe 207 (-70.982 46.885 2)
# Probe 208 (16.536 -88.981 2)
# Probe 209 (-31.75 -70.865 2)
# Probe 210 (-70.982 49.904 2)
# Probe 211 (16.536 -85.962 2)
# Probe 212 (-70.982 52.923 2)
# Probe 213 (-31.75 -67.846 2)
# Probe 214 (16.536 -82.942 2)
# Probe 215 (-70.982 55.942 2)
# Probe 216 (-31.75 -64.827 2)
# Probe 217 (-70.982 58.962 2)
# Probe 218 (16.536 -79.923 2)
# Probe 219 (-31.75 -61.808 2)
# Probe 220 (-70.982 61.981 2)
# Probe 221 (-31.75 -58.788 2)
# Probe 222 (16.536 -76.904 2)
# Probe 223 (-70.982 65 2)
# Probe 224 (-31.75 -55.769 2)
# Probe 225 (-67.964 -92 2)
# Probe 226 (16.536 -73.885 2)
# Probe 227 (-31.75 -52.75 2)
# Probe 228 (-67.964 -88.981 2)
# Probe 229 (-31.75 -49.731 2)
# Probe 230 (16.536 -70.865 2)
# Probe 231 (-67.964 -85.962 2)
# Probe 232 (-31.75 -46.712 2)
# Probe 233 (-67.964 -82.942 2)
# Probe 234 (-31.75 -43.692 2)
# Probe 235 (16.536 -67.846 2)
# Probe 236 (-67.964 -79.923 2)
# Probe 237 (-31.75 -40.673 2)
# Probe 238 (-67.964 -76.904 2)
# Probe 239 (-31.75 -37.654 2)
# Probe 240 (16.536 -64.827 2)
# Probe 241 (-67.964 -73.885 2)
# Probe 242 (-31.75 -34.635 2)
# Probe 243 (-67.964 -70.865 2)
# Probe 244 (16.536 -61.808 2)
# Probe 245 (-31.75 -31.615 2)
# Probe 246 (-67.964 -67.846 2)
# Probe 247 (-31.75 -28.596 2)
# Probe 248 (16.536 -58.788 2)
# Probe 249 (-67.964 -64.827 2)
# Probe 250 (-31.75 -25.577 2)
# Probe 251 (-67.964 -61.808 2)
# Probe 252 (16.536 -55.769 2)
# Probe 253 (-31.75 -22.558 2)
# Probe 254 (-67.964 -58.788 2)
# Probe 255 (-31.75 -19.538 2)
# Probe 256 (-67.964 -55.769 2)
# Probe 257 (16.536 -52.75 2)
# Probe 258 (-31.75 -16.519 2)
# Probe 259 (-67.964 -52.75 2)
# Probe 260 (16.536 -49.731 2)
# Probe 261 (-67.964 -49.731 2)
# Probe 262 (-31.75 -13.5 2)
# Probe 263 (-67.964 -46.712 2)
# Probe 264 (16.536 -46.712 2)
# Probe 265 (-31.75 -10.481 2)
# Probe 266 (-67.964 -43.692 2)
# Probe 267 (-31.75 -7.462 2)
# Probe 268 (16.536 -43.692 2)
# Probe 269 (-67.964 -40.673 2)
# Probe 270 (-31.75 -4.442 2)
# Probe 271 (-67.964 -37.654 2)
# Probe 272 (16.536 -40.673 2)
# Probe 273 (-31.75 -1.423 2)
# Probe 274 (-67.964 -34.635 2)
# Probe 275 (-31.75 1.596 2)
# Probe 276 (-67.964 -31.615 2)
# Probe 277 (16.536 -37.654 2)
# Probe 278 (-31.75 4.615 2)
# Probe 279 (-67.964 -28.596 2)
# Probe 280 (16.536 -34.635 2)
# Probe 281 (-31.75 7.635 2)
# Probe 282 (-67.964 -25.577 2)
# Probe 283 (-67.964 -22.558 2)
# Probe 284 (-31.75 10.654 2)
# Probe 285 (16.536 -31.615 2)
# Probe 286 (-67.964 -19.538 2)
# Probe 287 (-31.75 13.673 2)
# Probe 288 (16.536 -28.596 2)
# Probe 289 (-67.964 -16.519 2)
# Probe 290 (-31.75 16.692 2)
# Probe 291 (-67.964 -13.5 2)
# Probe 292 (-31.75 19.712 2)
# Probe 293 (-67.964 -10.481 2)
# Probe 294 (-31.75 22.731 2)
# Probe 295 (-67.964 -7.462 2)
# Probe 296 (16.536 -25.577 2)
# Probe 297 (-67.964 -4.442 2)
# Probe 298 (-31.75 25.75 2)
# Probe 299 (-67.964 -1.423 2)
# Probe 300 (-31.75 28.769 2)
# Probe 301 (-31.75 31.788 2)
# Probe 302 (-67.964 1.596 2)
# Probe 303 (16.536 -22.558 2)
# Probe 304 (-67.964 4.615 2)
# Probe 305 (-31.75 34.808 2)
# Probe 306 (55.768 61.981 2)
# Probe 307 (16.536 -19.538 2)
# Probe 308 (-67.964 7.635 2)
# Probe 309 (-31.75 37.827 2)
# Probe 310 (-67.964 10.654 2)
# Probe 311 (-31.75 40.846 2)
# Probe 312 (16.536 -16.519 2)
# Probe 313 (-67.964 13.673 2)
# Probe 314 (-31.75 43.865 2)
# Probe 315 (16.536 -13.5 2)
# Probe 316 (-67.964 16.692 2)
# Probe 317 (-31.75 46.885 2)
# Probe 318 (16.536 -10.481 2)
# Probe 319 (-67.964 19.712 2)
# Probe 320 (-31.75 49.904 2)
# Probe 321 (16.536 -7.462 2)
# Probe 322 (-31.75 52.923 2)
# Probe 323 (-67.964 22.731 2)
# Probe 324 (16.536 -4.442 2)
# Probe 325 (-31.75 55.942 2)
# Probe 326 (-67.964 25.75 2)
# Probe 327 (16.536 -1.423 2)
# Probe 328 (-31.75 58.962 2)
# Probe 329 (-67.964 28.769 2)
# Probe 330 (16.536 1.596 2)
# Probe 331 (-31.75 61.981 2)
# Probe 332 (-67.964 31.788 2)
# Probe 333 (16.536 4.615 2)
# Probe 334 (-31.75 65 2)
# Probe 335 (-67.964 34.808 2)
# Probe 336 (16.536 7.635 2)
# Probe 337 (-67.964 37.827 2)
# Probe 338 (-28.732 -92 2)
# Probe 339 (16.536 10.654 2)
# Probe 340 (-67.964 40.846 2)
# Probe 341 (-28.732 -88.981 2)
# Probe 342 (16.536 13.673 2)
# Probe 343 (-67.964 43.865 2)
# Probe 344 (-28.732 -85.962 2)
# Probe 345 (16.536 16.692 2)
# Probe 346 (-67.964 46.885 2)
# Probe 347 (-28.732 -82.942 2)
# Probe 348 (16.536 19.712 2)
# Probe 349 (-67.964 49.904 2)
# Probe 350 (-28.732 -79.923 2)
# Probe 351 (-67.964 52.923 2)
# Probe 352 (16.536 22.731 2)
# Probe 353 (-28.732 -76.904 2)
# Probe 354 (55.768 65 2)
# Probe 355 (-67.964 55.942 2)
# Probe 356 (16.536 25.75 2)
# Probe 357 (-28.732 -73.885 2)
# Probe 358 (58.786 -92 2)
# Probe 359 (-67.964 58.962 2)
# Probe 360 (16.536 28.769 2)
# Probe 361 (-28.732 -70.865 2)
# Probe 362 (58.786 -88.981 2)
# Probe 363 (-67.964 61.981 2)
# Probe 364 (16.536 31.788 2)
# Probe 365 (-28.732 -67.846 2)
# Probe 366 (58.786 -85.962 2)
# Probe 367 (-67.964 65 2)
# Probe 368 (16.536 34.808 2)
# Probe 369 (-28.732 -64.827 2)
# Probe 370 (58.786 -82.942 2)
# Probe 371 (-64.946 -92 2)
# Probe 372 (16.536 37.827 2)
# Probe 373 (-28.732 -61.808 2)
# Probe 374 (58.786 -79.923 2)
# Probe 375 (-64.946 -88.981 2)
# Probe 376 (16.536 40.846 2)
# Probe 377 (-28.732 -58.788 2)
# Probe 378 (58.786 -76.904 2)
# Probe 379 (-64.946 -85.962 2)
# Probe 380 (16.536 43.865 2)
# Probe 381 (-28.732 -55.769 2)
# Probe 382 (58.786 -73.885 2)
# Probe 383 (-64.946 -82.942 2)
# Probe 384 (16.536 46.885 2)
# Probe 385 (-28.732 -52.75 2)
# Probe 386 (58.786 -70.865 2)
# Probe 387 (-64.946 -79.923 2)
# Probe 388 (16.536 49.904 2)
# Probe 389 (-28.732 -49.731 2)
# Probe 390 (58.786 -67.846 2)
# Probe 391 (-64.946 -76.904 2)
# Probe 392 (16.536 52.923 2)
# Probe 393 (-28.732 -46.712 2)
# Probe 394 (58.786 -64.827 2)
# Probe 395 (-64.946 -73.885 2)
# Probe 396 (16.536 55.942 2)
# Probe 397 (-28.732 -43.692 2)
# Probe 398 (58.786 -61.808 2)
# Probe 399 (-64.946 -70.865 2)
# Probe 400 (16.536 58.962 2)
# Probe 401 (-28.732 -40.673 2)
# Probe 402 (58.786 -58.788 2)
# Probe 403 (-64.946 -67.846 2)
# Probe 404 (16.536 61.981 2)
# Probe 405 (-28.732 -37.654 2)
# Probe 406 (58.786 -55.769 2)
# Probe 407 (-64.946 -64.827 2)
# Probe 408 (16.536 65 2)
# Probe 409 (-28.732 -34.635 2)
# Probe 410 (58.786 -52.75 2)
# Probe 411 (-64.946 -61.808 2)
# Probe 412 (19.554 -92 2)
# Probe 413 (-28.732 -31.615 2)
# Probe 414 (58.786 -49.731 2)
# Probe 415 (-64.946 -58.788 2)
# Probe 416 (19.554 -88.981 2)
# Probe 417 (-28.732 -28.596 2)
# Probe 418 (58.786 -46.712 2)
# Probe 419 (-64.946 -55.769 2)
# Probe 420 (19.554 -85.962 2)
# Probe 421 (-28.732 -25.577 2)
# Probe 422 (58.786 -43.692 2)
# Probe 423 (-64.946 -52.75 2)
# Probe 424 (19.554 -82.942 2)
# Probe 425 (-28.732 -22.558 2)
# Probe 426 (58.786 -40.673 2)
# Probe 427 (-64.946 -49.731 2)
# Probe 428 (19.554 -79.923 2)
# Probe 429 (-28.732 -19.538 2)
# Probe 430 (58.786 -37.654 2)
# Probe 431 (-64.946 -46.712 2)
# Probe 432 (19.554 -76.904 2)
# Probe 433 (-28.732 -16.519 2)
# Probe 434 (58.786 -34.635 2)
# Probe 435 (-64.946 -43.692 2)
# Probe 436 (19.554 -73.885 2)
# Probe 437 (-28.732 -13.5 2)
# Probe 438 (58.786 -31.615 2)
# Probe 439 (-64.946 -40.673 2)
# Probe 440 (19.554 -70.865 2)
# Probe 441 (-28.732 -10.481 2)
# Probe 442 (58.786 -28.596 2)
# Probe 443 (-64.946 -37.654 2)
# Probe 444 (19.554 -67.846 2)
# Probe 445 (-28.732 -7.462 2)
# Probe 446 (58.786 -25.577 2)
# Probe 447 (-64.946 -34.635 2)
# Probe 448 (19.554 -64.827 2)
# Probe 449 (-28.732 -4.442 2)
# Probe 450 (58.786 -10.481 2)
# Probe 451 (-64.946 -31.615 2)
# Probe 452 (19.554 -61.808 2)
# Probe 453 (-28.732 -1.423 2)
# Probe 454 (-64.946 -28.596 2)
# Probe 455 (-28.732 1.596 2)
# Probe 456 (-64.946 -25.577 2)
# Probe 457 (-28.732 4.615 2)
# Probe 458 (-64.946 -22.558 2)
# Probe 459 (-28.732 7.635 2)
# Probe 460 (-64.946 -19.538 2)
# Probe 461 (-64.946 -16.519 2)
# Probe 462 (-28.732 10.654 2)
# Probe 463 (-64.946 -13.5 2)
# Probe 464 (-28.732 13.673 2)
# Probe 465 (-64.946 -10.481 2)
# Probe 466 (-28.732 16.692 2)
# Probe 467 (-28.732 19.712 2)
# Probe 468 (-64.946 -7.462 2)
# Probe 469 (-28.732 22.731 2)
# Probe 470 (-64.946 -4.442 2)
# Probe 471 (19.554 -58.788 2)
# Probe 472 (-28.732 25.75 2)
# Probe 473 (19.554 -55.769 2)
# Probe 474 (-64.946 -1.423 2)
# Probe 475 (-28.732 28.769 2)
# Probe 476 (19.554 -52.75 2)
# Probe 477 (-64.946 1.596 2)
# Probe 478 (-28.732 31.788 2)
# Probe 479 (19.554 -49.731 2)
# Probe 480 (-28.732 34.808 2)
# Probe 481 (-64.946 4.615 2)
# Probe 482 (19.554 -46.712 2)
# Probe 483 (-28.732 37.827 2)
# Probe 484 (19.554 -43.692 2)
# Probe 485 (-64.946 7.635 2)
# Probe 486 (-28.732 40.846 2)
# Probe 487 (19.554 -40.673 2)
# Probe 488 (-64.946 10.654 2)
# Probe 489 (-28.732 43.865 2)
# Probe 490 (58.786 -7.462 2)
# Probe 491 (-28.732 46.885 2)
# Probe 492 (-64.946 13.673 2)
# Probe 493 (58.786 -4.442 2)
# Probe 494 (-28.732 49.904 2)
# Probe 495 (-64.946 16.692 2)
# Probe 496 (58.786 -1.423 2)
# Probe 497 (-28.732 52.923 2)
# Probe 498 (58.786 1.596 2)
# Probe 499 (-64.946 19.712 2)
# Probe 500 (-28.732 55.942 2)
# Probe 501 (58.786 4.615 2)
# Probe 502 (-28.732 58.962 2)
# Probe 503 (-64.946 22.731 2)
# Probe 504 (58.786 7.635 2)
# Probe 505 (-28.732 61.981 2)
# Probe 506 (-64.946 25.75 2)
# Probe 507 (58.786 10.654 2)
# Probe 508 (-28.732 65 2)
# Probe 509 (-64.946 28.769 2)
# Probe 510 (58.786 13.673 2)
# Probe 511 (-64.946 31.788 2)
# Probe 512 (-25.714 -92 2)
# Probe 513 (58.786 16.692 2)
# Probe 514 (-64.946 34.808 2)
# Probe 515 (58.786 19.712 2)
# Probe 516 (-25.714 -88.981 2)
# Probe 517 (-64.946 37.827 2)
# Probe 518 (58.786 22.731 2)
# Probe 519 (-64.946 40.846 2)
# Probe 520 (-25.714 -85.962 2)
# Probe 521 (58.786 25.75 2)
# Probe 522 (-64.946 43.865 2)
# Probe 523 (-25.714 -82.942 2)
# Probe 524 (58.786 28.769 2)
# Probe 525 (-64.946 46.885 2)
# Probe 526 (58.786 31.788 2)
# Probe 527 (-25.714 -79.923 2)
# Probe 528 (-64.946 49.904 2)
# Probe 529 (58.786 34.808 2)
# Probe 530 (-25.714 -76.904 2)
# Probe 531 (-64.946 52.923 2)
# Probe 532 (58.786 37.827 2)
# Probe 533 (-64.946 55.942 2)
# Probe 534 (-25.714 -73.885 2)
# Probe 535 (58.786 40.846 2)
# Probe 536 (-64.946 58.962 2)
# Probe 537 (-25.714 -70.865 2)
# Probe 538 (58.786 43.865 2)
# Probe 539 (-64.946 61.981 2)
# Probe 540 (58.786 46.885 2)
# Probe 541 (-25.714 -67.846 2)
# Probe 542 (-64.946 65 2)
# Probe 543 (58.786 49.904 2)
# Probe 544 (-25.714 -64.827 2)
# Probe 545 (-61.929 -92 2)
# Probe 546 (58.786 52.923 2)
# Probe 547 (-61.929 -88.981 2)
# Probe 548 (-25.714 -61.808 2)
# Probe 549 (58.786 55.942 2)
# Probe 550 (-61.929 -85.962 2)
# Probe 551 (-25.714 -58.788 2)
# Probe 552 (58.786 58.962 2)
# Probe 553 (-61.929 -82.942 2)
# Probe 554 (58.786 61.981 2)
# Probe 555 (-25.714 -55.769 2)
# Probe 556 (19.554 -37.654 2)
# Probe 557 (-61.929 -79.923 2)
# Probe 558 (58.786 65 2)
# Probe 559 (19.554 -34.635 2)
# Probe 560 (-61.929 -76.904 2)
# Probe 561 (-25.714 -52.75 2)
# Probe 562 (-25.714 -49.731 2)
# Probe 563 (-61.929 -73.885 2)
# Probe 564 (61.804 -92 2)
# Probe 565 (-25.714 -46.712 2)
# Probe 566 (-61.929 -70.865 2)
# Probe 567 (-25.714 -43.692 2)
# Probe 568 (61.804 -88.981 2)
# Probe 569 (-61.929 -67.846 2)
# Probe 570 (-25.714 22.731 2)
# Probe 571 (61.804 -85.962 2)
# Probe 572 (-25.714 25.75 2)
# Probe 573 (-61.929 -64.827 2)
# Probe 574 (-25.714 28.769 2)
# Probe 575 (-61.929 -61.808 2)
# Probe 576 (61.804 -82.942 2)
# Probe 577 (19.554 -31.615 2)
# Probe 578 (-25.714 31.788 2)
# Probe 579 (-61.929 -58.788 2)
# Probe 580 (61.804 -79.923 2)
# Probe 581 (19.554 -28.596 2)
# Probe 582 (-25.714 34.808 2)
# Probe 583 (-61.929 -55.769 2)
# Probe 584 (61.804 -76.904 2)
# Probe 585 (19.554 -25.577 2)
# Probe 586 (-25.714 37.827 2)
# Probe 587 (-61.929 -52.75 2)
# Probe 588 (61.804 -73.885 2)
# Probe 589 (19.554 -22.558 2)
# Probe 590 (-25.714 40.846 2)
# Probe 591 (-61.929 -49.731 2)
# Probe 592 (61.804 -70.865 2)
# Probe 593 (19.554 -19.538 2)
# Probe 594 (-25.714 43.865 2)
# Probe 595 (-61.929 -46.712 2)
# Probe 596 (61.804 -67.846 2)
# Probe 597 (19.554 -16.519 2)
# Probe 598 (-25.714 46.885 2)
# Probe 599 (-61.929 -43.692 2)
# Probe 600 (61.804 -64.827 2)
# Probe 601 (19.554 -13.5 2)
# Probe 602 (-25.714 49.904 2)
# Probe 603 (-61.929 -40.673 2)
# Probe 604 (61.804 -61.808 2)
# Probe 605 (19.554 -10.481 2)
# Probe 606 (-25.714 52.923 2)
# Probe 607 (-61.929 -37.654 2)
# Probe 608 (61.804 -58.788 2)
# Probe 609 (19.554 -7.462 2)
# Probe 610 (-25.714 55.942 2)
# Probe 611 (-61.929 -34.635 2)
# Probe 612 (61.804 -55.769 2)
# Probe 613 (19.554 -4.442 2)
# Probe 614 (-25.714 58.962 2)
# Probe 615 (-61.929 -31.615 2)
# Probe 616 (61.804 -52.75 2)
# Probe 617 (19.554 -1.423 2)
# Probe 618 (-25.714 61.981 2)
# Probe 619 (-61.929 -28.596 2)
# Probe 620 (61.804 -49.731 2)
# Probe 621 (19.554 1.596 2)
# Probe 622 (-25.714 65 2)
# Probe 623 (-61.929 -25.577 2)
# Probe 624 (61.804 -46.712 2)
# Probe 625 (19.554 4.615 2)
# Probe 626 (-22.696 -92 2)
# Probe 627 (-61.929 -22.558 2)
# Probe 628 (61.804 -43.692 2)
# Probe 629 (19.554 7.635 2)
# Probe 630 (-22.696 -88.981 2)
# Probe 631 (-61.929 -19.538 2)
# Probe 632 (61.804 -40.673 2)
# Probe 633 (19.554 10.654 2)
# Probe 634 (-22.696 -85.962 2)
# Probe 635 (-61.929 -16.519 2)
# Probe 636 (61.804 -37.654 2)
# Probe 637 (19.554 13.673 2)
# Probe 638 (-22.696 -82.942 2)
# Probe 639 (-61.929 -13.5 2)
# Probe 640 (61.804 -34.635 2)
# Probe 641 (19.554 16.692 2)
# Probe 642 (-22.696 -79.923 2)
# Probe 643 (-61.929 -10.481 2)
# Probe 644 (61.804 -31.615 2)
# Probe 645 (19.554 19.712 2)
# Probe 646 (-22.696 -76.904 2)
# Probe 647 (-61.929 -7.462 2)
# Probe 648 (61.804 -28.596 2)
# Probe 649 (19.554 22.731 2)
# Probe 650 (-22.696 -73.885 2)
# Probe 651 (-61.929 -4.442 2)
# Probe 652 (61.804 -25.577 2)
# Probe 653 (-22.696 -70.865 2)
# Probe 654 (19.554 25.75 2)
# Probe 655 (-61.929 -1.423 2)
# Probe 656 (61.804 -10.481 2)
# Probe 657 (-22.696 -67.846 2)
# Probe 658 (19.554 28.769 2)
# Probe 659 (-61.929 1.596 2)
# Probe 660 (61.804 -7.462 2)
# Probe 661 (-22.696 -64.827 2)
# Probe 662 (19.554 31.788 2)
# Probe 663 (-61.929 4.615 2)
# Probe 664 (61.804 -4.442 2)
# Probe 665 (-22.696 -61.808 2)
# Probe 666 (19.554 34.808 2)
# Probe 667 (-61.929 7.635 2)
# Probe 668 (61.804 -1.423 2)
# Probe 669 (19.554 37.827 2)
# Probe 670 (-22.696 -58.788 2)
# Probe 671 (-61.929 10.654 2)
# Probe 672 (61.804 1.596 2)
# Probe 673 (19.554 40.846 2)
# Probe 674 (-22.696 -55.769 2)
# Probe 675 (-61.929 13.673 2)
# Probe 676 (61.804 4.615 2)
# Probe 677 (19.554 43.865 2)
# Probe 678 (-22.696 -52.75 2)
# Probe 679 (-61.929 16.692 2)
# Probe 680 (61.804 7.635 2)
# Probe 681 (19.554 46.885 2)
# Probe 682 (-22.696 -49.731 2)
# Probe 683 (-61.929 19.712 2)
# Probe 684 (61.804 10.654 2)
# Probe 685 (19.554 49.904 2)
# Probe 686 (-22.696 -46.712 2)
# Probe 687 (-61.929 22.731 2)
# Probe 688 (61.804 13.673 2)
# Probe 689 (19.554 52.923 2)
# Probe 690 (-22.696 -43.692 2)
# Probe 691 (-61.929 25.75 2)
# Probe 692 (61.804 16.692 2)
# Probe 693 (-22.696 22.731 2)
# Probe 694 (19.554 55.942 2)
# Probe 695 (-61.929 28.769 2)
# Probe 696 (61.804 19.712 2)
# Probe 697 (-22.696 25.75 2)
# Probe 698 (19.554 58.962 2)
# Probe 699 (-61.929 31.788 2)
# Probe 700 (61.804 22.731 2)
# Probe 701 (-22.696 28.769 2)
# Probe 702 (19.554 61.981 2)
# Probe 703 (-61.929 34.808 2)
# Probe 704 (61.804 25.75 2)
# Probe 705 (-22.696 31.788 2)
# Probe 706 (19.554 65 2)
# Probe 707 (-61.929 37.827 2)
# Probe 708 (61.804 28.769 2)
# Probe 709 (-22.696 34.808 2)
# Probe 710 (22.571 -92 2)
# Probe 711 (-61.929 40.846 2)
# Probe 712 (61.804 31.788 2)
# Probe 713 (-22.696 37.827 2)
# Probe 714 (-61.929 43.865 2)
# Probe 715 (22.571 -88.981 2)
# Probe 716 (61.804 34.808 2)
# Probe 717 (-22.696 40.846 2)
# Probe 718 (22.571 -85.962 2)
# Probe 719 (-61.929 46.885 2)
# Probe 720 (61.804 37.827 2)
# Probe 721 (-22.696 43.865 2)
# Probe 722 (22.571 -82.942 2)
# Probe 723 (-61.929 49.904 2)
# Probe 724 (61.804 40.846 2)
# Probe 725 (-22.696 46.885 2)
# Probe 726 (22.571 -79.923 2)
# Probe 727 (-61.929 52.923 2)
# Probe 728 (61.804 43.865 2)
# Probe 729 (-22.696 49.904 2)
# Probe 730 (22.571 -76.904 2)
# Probe 731 (-61.929 55.942 2)
# Probe 732 (61.804 46.885 2)
# Probe 733 (-22.696 52.923 2)
# Probe 734 (22.571 -73.885 2)
# Probe 735 (-61.929 58.962 2)
# Probe 736 (61.804 49.904 2)
# Probe 737 (-22.696 55.942 2)
# Probe 738 (22.571 -70.865 2)
# Probe 739 (-61.929 61.981 2)
# Probe 740 (61.804 52.923 2)
# Probe 741 (-22.696 58.962 2)
# Probe 742 (22.571 -67.846 2)
# Probe 743 (-61.929 65 2)
# Probe 744 (61.804 55.942 2)
# Probe 745 (-22.696 61.981 2)
# Probe 746 (22.571 -64.827 2)
# Probe 747 (-58.911 -92 2)
# Probe 748 (61.804 58.962 2)
# Probe 749 (-22.696 65 2)
# Probe 750 (22.571 -61.808 2)
# Probe 751 (-58.911 -88.981 2)
# Probe 752 (61.804 61.981 2)
# Probe 753 (-19.679 -92 2)
# Probe 754 (22.571 -58.788 2)
# Probe 755 (-58.911 -85.962 2)
# Probe 756 (61.804 65 2)
# Probe 757 (-19.679 -88.981 2)
# Probe 758 (-58.911 -82.942 2)
# Probe 759 (-19.679 -85.962 2)
# Probe 760 (-58.911 -79.923 2)
# Probe 761 (64.821 -92 2)
# Probe 762 (-19.679 -82.942 2)
# Probe 763 (-58.911 -76.904 2)
# Probe 764 (-19.679 -79.923 2)
# Probe 765 (-58.911 -73.885 2)
# Probe 766 (-19.679 -76.904 2)
# Probe 767 (64.821 -88.981 2)
# Probe 768 (-58.911 -70.865 2)
# Probe 769 (-19.679 -73.885 2)
# Probe 770 (-58.911 -67.846 2)
# Probe 771 (-19.679 -70.865 2)
# Probe 772 (-19.679 -67.846 2)
# Probe 773 (-58.911 -64.827 2)
# Probe 774 (-19.679 -64.827 2)
# Probe 775 (-58.911 -61.808 2)
# Probe 776 (-19.679 -61.808 2)
# Probe 777 (-58.911 -58.788 2)
# Probe 778 (-19.679 -58.788 2)
# Probe 779 (-19.679 -55.769 2)
# Probe 780 (-58.911 -55.769 2)
# Probe 781 (-19.679 -52.75 2)
# Probe 782 (-58.911 -52.75 2)
# Probe 783 (-58.911 -49.731 2)
# Probe 784 (-19.679 -49.731 2)
# Probe 785 (-58.911 -46.712 2)
# Probe 786 (-19.679 -46.712 2)
# Probe 787 (-58.911 -43.692 2)
# Probe 788 (-19.679 -43.692 2)
# Probe 789 (-58.911 -40.673 2)
# Probe 790 (-19.679 22.731 2)
# Probe 791 (-58.911 -37.654 2)
# Probe 792 (-58.911 -34.635 2)
# Probe 793 (-19.679 25.75 2)
# Probe 794 (-58.911 -31.615 2)
# Probe 795 (-19.679 28.769 2)
# Probe 796 (-58.911 -28.596 2)
# Probe 797 (-19.679 31.788 2)
# Probe 798 (-58.911 -25.577 2)
# Probe 799 (-19.679 34.808 2)
# Probe 800 (-58.911 -22.558 2)
# Probe 801 (-19.679 37.827 2)
# Probe 802 (64.821 -85.962 2)
# Probe 803 (-58.911 -19.538 2)
# Probe 804 (-19.679 40.846 2)
# Probe 805 (64.821 -82.942 2)
# Probe 806 (-19.679 43.865 2)
# Probe 807 (-58.911 -16.519 2)
# Probe 808 (64.821 -79.923 2)
# Probe 809 (-19.679 46.885 2)
# Probe 810 (-58.911 -13.5 2)
# Probe 811 (-19.679 49.904 2)
# Probe 812 (22.571 -55.769 2)
# Probe 813 (-58.911 -10.481 2)
# Probe 814 (-19.679 52.923 2)
# Probe 815 (22.571 -52.75 2)
# Probe 816 (-58.911 -7.462 2)
# Probe 817 (-19.679 55.942 2)
# Probe 818 (22.571 -49.731 2)
# Probe 819 (-19.679 58.962 2)
# Probe 820 (22.571 -46.712 2)
# Probe 821 (-58.911 -4.442 2)
# Probe 822 (-19.679 61.981 2)
# Probe 823 (22.571 -43.692 2)
# Probe 824 (-58.911 -1.423 2)
# Probe 825 (-19.679 65 2)
# Probe 826 (22.571 -40.673 2)
# Probe 827 (-16.661 -92 2)
# Probe 828 (-58.911 1.596 2)
# Probe 829 (22.571 -37.654 2)
# Probe 830 (-16.661 -88.981 2)
# Probe 831 (22.571 -34.635 2)
# Probe 832 (-58.911 4.615 2)
# Probe 833 (-16.661 -85.962 2)
# Probe 834 (22.571 -31.615 2)
# Probe 835 (-58.911 7.635 2)
# Probe 836 (-16.661 -82.942 2)
# Probe 837 (22.571 -28.596 2)
# Probe 838 (-58.911 10.654 2)
# Probe 839 (-16.661 -79.923 2)
# Probe 840 (22.571 -25.577 2)
# Probe 841 (-16.661 -76.904 2)
# Probe 842 (-58.911 13.673 2)
# Probe 843 (22.571 -10.481 2)
# Probe 844 (-16.661 -73.885 2)
# Probe 845 (-58.911 16.692 2)
# Probe 846 (-16.661 -70.865 2)
# Probe 847 (-16.661 -67.846 2)
# Probe 848 (-58.911 19.712 2)
# Probe 849 (-16.661 -64.827 2)
# Probe 850 (-58.911 22.731 2)
# Probe 851 (-16.661 -61.808 2)
# Probe 852 (-16.661 -58.788 2)
# Probe 853 (-58.911 25.75 2)
# Probe 854 (-16.661 -55.769 2)
# Probe 855 (22.571 -7.462 2)
# Probe 856 (-58.911 28.769 2)
# Probe 857 (-16.661 -52.75 2)
# Probe 858 (22.571 -4.442 2)
# Probe 859 (-16.661 -49.731 2)
# Probe 860 (-58.911 31.788 2)
# Probe 861 (22.571 -1.423 2)
# Probe 862 (-16.661 -46.712 2)
# Probe 863 (-58.911 34.808 2)
# Probe 864 (22.571 1.596 2)
# Probe 865 (-16.661 -43.692 2)
# Probe 866 (64.821 -76.904 2)
# Probe 867 (-58.911 37.827 2)
# Probe 868 (22.571 4.615 2)
# Probe 869 (-16.661 22.731 2)
# Probe 870 (64.821 -73.885 2)
# Probe 871 (-58.911 40.846 2)
# Probe 872 (22.571 7.635 2)
# Probe 873 (-16.661 25.75 2)
# Probe 874 (64.821 -70.865 2)
# Probe 875 (-58.911 43.865 2)
# Probe 876 (22.571 10.654 2)
# Probe 877 (-16.661 28.769 2)
# Probe 878 (64.821 -67.846 2)
# Probe 879 (-58.911 46.885 2)
# Probe 880 (22.571 13.673 2)
# Probe 881 (-16.661 31.788 2)
# Probe 882 (64.821 -64.827 2)
# Probe 883 (-58.911 49.904 2)
# Probe 884 (22.571 16.692 2)
# Probe 885 (-16.661 34.808 2)
# Probe 886 (64.821 -61.808 2)
# Probe 887 (-58.911 52.923 2)
# Probe 888 (22.571 19.712 2)
# Probe 889 (-16.661 37.827 2)
# Probe 890 (64.821 -58.788 2)
# Probe 891 (-58.911 55.942 2)
# Probe 892 (22.571 22.731 2)
# Probe 893 (-16.661 40.846 2)
# Probe 894 (64.821 -55.769 2)
# Probe 895 (-58.911 58.962 2)
# Probe 896 (22.571 25.75 2)
# Probe 897 (-16.661 43.865 2)
# Probe 898 (64.821 -52.75 2)
# Probe 899 (-58.911 61.981 2)
# Probe 900 (22.571 28.769 2)
# Probe 901 (-16.661 46.885 2)
# Probe 902 (64.821 -49.731 2)
# Probe 903 (-58.911 65 2)
# Probe 904 (22.571 31.788 2)
# Probe 905 (-16.661 49.904 2)
# Probe 906 (64.821 -46.712 2)
# Probe 907 (-55.893 -92 2)
# Probe 908 (22.571 34.808 2)
# Probe 909 (-16.661 52.923 2)
# Probe 910 (64.821 -43.692 2)
# Probe 911 (-55.893 -88.981 2)
# Probe 912 (22.571 37.827 2)
# Probe 913 (-16.661 55.942 2)
# Probe 914 (64.821 -40.673 2)
# Probe 915 (-55.893 -85.962 2)
# Probe 916 (22.571 40.846 2)
# Probe 917 (-16.661 58.962 2)
# Probe 918 (64.821 -37.654 2)
# Probe 919 (-55.893 -82.942 2)
# Probe 920 (22.571 43.865 2)
# Probe 921 (-16.661 61.981 2)
# Probe 922 (64.821 -34.635 2)
# Probe 923 (-55.893 -79.923 2)
# Probe 924 (22.571 46.885 2)
# Probe 925 (-16.661 65 2)
# Probe 926 (64.821 -31.615 2)
# Probe 927 (-55.893 -76.904 2)
# Probe 928 (22.571 49.904 2)
# Probe 929 (-13.643 -92 2)
# Probe 930 (64.821 -28.596 2)
# Probe 931 (-55.893 -73.885 2)
# Probe 932 (22.571 52.923 2)
# Probe 933 (-13.643 -88.981 2)
# Probe 934 (64.821 -25.577 2)
# Probe 935 (-55.893 -70.865 2)
# Probe 936 (22.571 55.942 2)
# Probe 937 (-13.643 -85.962 2)
# Probe 938 (64.821 -22.558 2)
# Probe 939 (-55.893 -67.846 2)
# Probe 940 (22.571 58.962 2)
# Probe 941 (-13.643 -82.942 2)
# Probe 942 (-55.893 -64.827 2)
# Probe 943 (64.821 -19.538 2)
# Probe 944 (22.571 61.981 2)
# Probe 945 (-13.643 -79.923 2)
# Probe 946 (64.821 -16.519 2)
# Probe 947 (-55.893 -61.808 2)
# Probe 948 (22.571 65 2)
# Probe 949 (-13.643 -76.904 2)
# Probe 950 (64.821 -13.5 2)
# Probe 951 (-55.893 -58.788 2)
# Probe 952 (25.589 -92 2)
# Probe 953 (-13.643 -73.885 2)
# Probe 954 (64.821 -10.481 2)
# Probe 955 (-55.893 -55.769 2)
# Probe 956 (25.589 -88.981 2)
# Probe 957 (-13.643 -70.865 2)
# Probe 958 (-55.893 -52.75 2)
# Probe 959 (64.821 -7.462 2)
# Probe 960 (25.589 -85.962 2)
# Probe 961 (-13.643 -67.846 2)
# Probe 962 (-55.893 -49.731 2)
# Probe 963 (64.821 -4.442 2)
# Probe 964 (25.589 -82.942 2)
# Probe 965 (-13.643 -64.827 2)
# Probe 966 (-55.893 -46.712 2)
# Probe 967 (64.821 -1.423 2)
# Probe 968 (-13.643 -61.808 2)
# Probe 969 (-55.893 -43.692 2)
# Probe 970 (-13.643 -58.788 2)
# Probe 971 (-13.643 -55.769 2)
# Probe 972 (-55.893 -40.673 2)
# Probe 973 (64.821 1.596 2)
# Probe 974 (-13.643 -52.75 2)
# Probe 975 (-55.893 -37.654 2)
# Probe 976 (-13.643 -49.731 2)
# Probe 977 (-13.643 -46.712 2)
# Probe 978 (-55.893 -34.635 2)
# Probe 979 (-13.643 -43.692 2)
# Probe 980 (-55.893 -31.615 2)
# Probe 981 (-13.643 -28.596 2)
# Probe 982 (64.821 4.615 2)