# Residuals    
# Time         	Ux             	Uy             	Uz             	p              	epsilon        	k              
1              	1.00000000e+000	1.00000000e+000	1.00000000e+000	1.00000000e+000	9.78992670e-001	1.00000000e+000
2              	5.91200590e-002	5.18228710e-002	1.50549480e-001	8.88072950e-001	7.22979620e-001	4.58639990e-001
3              	5.31186750e-002	1.64982890e-001	2.85565250e-001	5.39440700e-002	3.62693280e-001	2.16895290e-001
4              	4.09531670e-002	1.08428590e-001	1.45811600e-001	5.61290160e-002	1.41465070e-001	1.23503180e-001
5              	3.47333100e-002	3.96769250e-002	1.75276960e-001	3.42355150e-001	5.97596900e-002	8.01658260e-002
6              	3.49455330e-002	3.80727330e-002	1.34613510e-001	1.33766470e-001	2.55382170e-002	6.77987300e-002
7              	2.88122960e-002	3.07582490e-002	9.69332740e-002	2.31624310e-001	1.16413210e-002	6.05859300e-002
8              	2.70230840e-002	3.32932610e-002	8.99531840e-002	8.11103120e-002	6.01488310e-003	5.58637140e-002
9              	2.67336120e-002	2.98117120e-002	8.86379710e-002	7.16869930e-002	3.76584890e-003	5.29945770e-002
10             	2.68811780e-002	2.67417600e-002	8.39814800e-002	7.69979730e-002	2.88615480e-003	5.09693160e-002
11             	2.65341420e-002	2.57363600e-002	7.82521580e-002	6.85145670e-002	2.56170470e-003	4.89366450e-002
12             	2.61840440e-002	2.52943830e-002	7.39673990e-002	5.75292100e-002	2.43396210e-003	4.62696040e-002
13             	2.59278460e-002	2.45582020e-002	7.12580180e-002	5.13636330e-002	2.36958560e-003	4.25762290e-002
14             	2.57449480e-002	2.34962470e-002	6.98287550e-002	5.08364220e-002	2.29552850e-003	3.84020430e-002
15             	2.55849790e-002	2.25030450e-002	6.86202320e-002	5.25384180e-002	2.20442530e-003	3.37304570e-002
16             	2.53620080e-002	2.17176640e-002	6.68240660e-002	5.16233390e-002	2.09216340e-003	2.91385120e-002
17             	2.52165300e-002	2.09154530e-002	6.52154550e-002	5.29400030e-002	1.95038030e-003	2.48709400e-002
18             	2.51003420e-002	2.00910200e-002	6.37806540e-002	5.43762190e-002	1.79358530e-003	2.10928010e-002
19             	2.49334680e-002	1.92085950e-002	6.28354590e-002	5.53169360e-002	1.62016090e-003	1.80359100e-002
20             	2.48040540e-002	1.83029710e-002	6.19544260e-002	5.51355660e-002	1.43689360e-003	1.60206570e-002
21             	2.46577310e-002	1.74547380e-002	6.10497930e-002	5.49931650e-002	1.27074230e-003	1.52956910e-002
22             	2.45825300e-002	1.66236750e-002	6.01486980e-002	5.50101050e-002	1.11872310e-003	1.56183590e-002
23             	2.45528520e-002	1.58197770e-002	5.95317910e-002	5.64003980e-002	1.01571120e-003	1.61898430e-002
24             	2.45502290e-002	1.50604000e-002	5.87054100e-002	5.85707160e-002	9.79606870e-004	1.67188460e-002
25             	2.45458710e-002	1.43367820e-002	5.79248120e-002	5.97378780e-002	1.00382180e-003	1.71406030e-002
26             	2.45699500e-002	1.36440380e-002	5.76043560e-002	6.05508570e-002	1.06031540e-003	1.74223830e-002
27             	2.46514010e-002	1.29926960e-002	5.71828050e-002	6.13788420e-002	1.12855220e-003	1.75812100e-002
28             	2.47610310e-002	1.24333260e-002	5.66626370e-002	6.22877370e-002	1.20898780e-003	1.75964160e-002
29             	2.49215700e-002	1.18928920e-002	5.60078290e-002	6.33792650e-002	1.28617970e-003	1.74881630e-002
30             	2.50842240e-002	1.13667030e-002	5.53597360e-002	6.36055230e-002	1.35825880e-003	1.72820840e-002
31             	2.52400070e-002	1.08902720e-002	5.46811020e-002	6.44191740e-002	1.41434230e-003	1.69809720e-002
32             	2.53963720e-002	1.04496480e-002	5.40533350e-002	6.58442510e-002	1.46386800e-003	1.66161360e-002
33             	2.55798440e-002	1.00307510e-002	5.34886520e-002	6.68121850e-002	1.50117680e-003	1.61927150e-002
34             	2.58324250e-002	9.65440070e-003	5.28347360e-002	6.66200070e-002	1.52786730e-003	1.57388820e-002
35             	2.60820760e-002	9.30103880e-003	5.21448320e-002	6.65840670e-002	1.53724020e-003	1.52516820e-002
36             	2.62988770e-002	8.94242490e-003	5.14541640e-002	6.59922070e-002	1.53055160e-003	1.47802910e-002
37             	2.65196640e-002	8.60957980e-003	5.07203890e-002	6.60348030e-002	1.50599570e-003	1.43516560e-002
38             	2.67434610e-002	8.29492670e-003	5.00009620e-002	6.50288690e-002	1.46651830e-003	1.39616750e-002
39             	2.69335210e-002	7.99820760e-003	4.92929310e-002	6.41349830e-002	1.41819130e-003	1.36068640e-002
40             	2.71364920e-002	7.71295900e-003	4.85395630e-002	6.30437060e-002	1.36402420e-003	1.32628820e-002
41             	2.72695930e-002	7.43913100e-003	4.78087530e-002	6.24470470e-002	1.30623850e-003	1.29402540e-002
42             	2.74374460e-002	7.17943430e-003	4.68726950e-002	6.11676870e-002	1.25057550e-003	1.26403760e-002
43             	2.76043680e-002	6.93241320e-003	4.60578420e-002	6.01259230e-002	1.19581760e-003	1.23704180e-002
44             	2.77200220e-002	6.68615390e-003	4.55549990e-002	5.93015620e-002	1.15027710e-003	1.21105380e-002
45             	2.78006750e-002	6.46135820e-003	4.48370470e-002	5.78269400e-002	1.10708720e-003	1.18803610e-002
46             	2.78422620e-002	6.26559760e-003	4.40007590e-002	5.59464650e-002	1.06430080e-003	1.16759470e-002
47             	2.79075440e-002	6.08678850e-003	4.33391230e-002	5.48012720e-002	1.02323940e-003	1.14738040e-002
48             	2.79637540e-002	5.90153600e-003	4.30543920e-002	5.31601940e-002	9.83119910e-004	1.12905480e-002
49             	2.79611440e-002	5.72258090e-003	4.28042800e-002	5.15946760e-002	9.45607290e-004	1.11286080e-002
50             	2.79442690e-002	5.56348690e-003	4.22490860e-002	4.98772980e-002	9.13207660e-004	1.09834940e-002
51             	2.78215990e-002	5.40254400e-003	4.18043640e-002	4.84129470e-002	8.84855360e-004	1.08457290e-002
52             	2.75835190e-002	5.25316210e-003	4.14797100e-002	4.74080490e-002	8.60312700e-004	1.07194830e-002
53             	2.73837710e-002	5.12632690e-003	4.13093540e-002	4.64893190e-002	8.38365640e-004	1.06201000e-002
54             	2.71377800e-002	5.00764570e-003	4.10451840e-002	4.52371020e-002	8.18387490e-004	1.05168960e-002
55             	2.68260550e-002	4.88898770e-003	4.05640100e-002	4.43119420e-002	7.98216240e-004	1.04265900e-002
56             	2.64117620e-002	4.76974030e-003	4.01876990e-002	4.30771110e-002	7.78768810e-004	1.03511150e-002
57             	2.59616010e-002	4.66731960e-003	3.97097500e-002	4.14768330e-002	7.60992250e-004	1.02733510e-002
58             	2.54514170e-002	4.57561780e-003	3.89513370e-002	3.97802250e-002	7.45367570e-004	1.02111750e-002
59             	2.49397270e-002	4.48498610e-003	3.80707430e-002	3.84247060e-002	7.30679420e-004	1.01563650e-002
60             	2.44049030e-002	4.39014480e-003	3.72599510e-002	3.70313780e-002	7.17807810e-004	1.00878040e-002
61             	2.38410770e-002	4.29654670e-003	3.65993780e-002	3.57933210e-002	7.05348770e-004	1.00357850e-002
62             	2.31594720e-002	4.21298150e-003	3.58051020e-002	3.45330060e-002	6.94362590e-004	9.97283320e-003
63             	2.24862560e-002	4.13482310e-003	3.49940720e-002	3.32849050e-002	6.82752880e-004	9.92914460e-003
64             	2.18827570e-002	4.05906580e-003	3.42512640e-002	3.26689650e-002	6.72655330e-004	9.87077540e-003
65             	2.12627460e-002	3.97121000e-003	3.36082810e-002	3.18987540e-002	6.63094060e-004	9.82161170e-003
66             	2.06576470e-002	3.89248960e-003	3.28460570e-002	3.06250360e-002	6.54450790e-004	9.76667100e-003
67             	2.01125060e-002	3.81929040e-003	3.21991590e-002	2.92909950e-002	6.44818470e-004	9.71872780e-003
68             	1.96329070e-002	3.74290220e-003	3.15872750e-002	2.85787480e-002	6.36502680e-004	9.67059830e-003
69             	1.91204100e-002	3.66287240e-003	3.11064770e-002	2.79203250e-002	6.27922070e-004	9.61739410e-003
70             	1.86578840e-002	3.58796980e-003	3.06318020e-002	2.70039770e-002	6.20019950e-004	9.56924800e-003
71             	1.82457540e-002	3.51539940e-003	3.00999460e-002	2.59121470e-002	6.11496700e-004	9.51672930e-003
72             	1.78808740e-002	3.44914270e-003	2.95863250e-002	2.49777770e-002	6.02294180e-004	9.46683940e-003
73             	1.74664130e-002	3.38311930e-003	2.91803360e-002	2.43026550e-002	5.92424110e-004	9.41103800e-003
74             	1.70978590e-002	3.31275630e-003	2.87443500e-002	2.39862950e-002	5.82609770e-004	9.36533170e-003
75             	1.67628380e-002	3.24891350e-003	2.81794130e-002	2.34533480e-002	5.71477440e-004	9.30835600e-003
76             	1.64199170e-002	3.19213160e-003	2.75652910e-002	2.29456670e-002	5.61042980e-004	9.25118030e-003
77             	1.61077130e-002	3.13004870e-003	2.70164400e-002	2.26381770e-002	5.49471660e-004	9.19196290e-003
78             	1.57655670e-002	3.06601240e-003	2.64038810e-002	2.25676990e-002	5.38355930e-004	9.12819000e-003
79             	1.54150710e-002	3.00233320e-003	2.57632740e-002	2.20806000e-002	5.27114430e-004	9.06316750e-003
80             	1.50483550e-002	2.93554960e-003	2.51065520e-002	2.17212630e-002	5.16931640e-004	8.99046270e-003
81             	1.46753140e-002	2.87258770e-003	2.43976440e-002	2.14361410e-002	5.06883150e-004	8.90804210e-003
82             	1.42985560e-002	2.81038840e-003	2.37301250e-002	2.10472060e-002	4.96462500e-004	8.83009570e-003
83             	1.39223410e-002	2.74422390e-003	2.31443580e-002	2.10047080e-002	4.86748190e-004	8.74875370e-003
84             	1.35505570e-002	2.67694530e-003	2.26312070e-002	2.08835710e-002	4.77645790e-004	8.66358800e-003
85             	1.31914160e-002	2.60951220e-003	2.21047680e-002	2.06958400e-002	4.69434730e-004	8.58276480e-003
86             	1.28532040e-002	2.54013080e-003	2.16686520e-002	2.05130800e-002	4.61802920e-004	8.48747920e-003
87             	1.25569010e-002	2.46958080e-003	2.12992190e-002	2.02305550e-002	4.54578040e-004	8.38952630e-003
88             	1.23014940e-002	2.39920430e-003	2.09792780e-002	1.99115980e-002	4.48813440e-004	8.29251190e-003
89             	1.20723010e-002	2.33280150e-003	2.07200840e-002	1.96279520e-002	4.44540040e-004	8.19408270e-003
90             	1.18835840e-002	2.26712180e-003	2.04720960e-002	1.93077120e-002	4.41771580e-004	8.09271430e-003
91             	1.17350270e-002	2.20342140e-003	2.03650100e-002	1.91782710e-002	4.39972090e-004	7.99228440e-003
92             	1.16110970e-002	2.14166170e-003	2.02563480e-002	1.90815490e-002	4.39184460e-004	7.88773580e-003
93             	1.15188610e-002	2.07987180e-003	2.01735370e-002	1.90158220e-002	4.38694850e-004	7.77811840e-003
94             	1.14636340e-002	2.01814100e-003	2.01406840e-002	1.90056000e-002	4.38039440e-004	7.67045800e-003
95             	1.14340290e-002	1.95738780e-003	2.00955090e-002	1.90238420e-002	4.37676120e-004	7.56228210e-003
96             	1.14207070e-002	1.89898030e-003	2.00651720e-002	1.90291500e-002	4.36786290e-004	7.45202110e-003
97             	1.14119590e-002	1.84294140e-003	2.00058640e-002	1.89957060e-002	4.35798470e-004	7.34813050e-003
98             	1.14202180e-002	1.78809540e-003	1.99171160e-002	1.89354930e-002	4.34941750e-004	7.23900280e-003
99             	1.14468680e-002	1.73496010e-003	1.98065120e-002	1.88349520e-002	4.33507290e-004	7.13155440e-003
100            	1.14757250e-002	1.68338610e-003	1.96757430e-002	1.87454350e-002	4.32044040e-004	7.02611320e-003
101            	1.15130140e-002	1.63350320e-003	1.95332990e-002	1.86011240e-002	4.30609580e-004	6.92539220e-003
102            	1.15513900e-002	1.58507600e-003	1.93805430e-002	1.84594100e-002	4.28991220e-004	6.82492930e-003
103            	1.15851700e-002	1.53835270e-003	1.92247190e-002	1.82668960e-002	4.27357910e-004	6.72714850e-003
104            	1.16159750e-002	1.49346490e-003	1.90456130e-002	1.80597910e-002	4.25889550e-004	6.63408850e-003
105            	1.16421020e-002	1.45038310e-003	1.88577250e-002	1.79585230e-002	4.24317610e-004	6.54451670e-003
106            	1.16563530e-002	1.40921640e-003	1.86798680e-002	1.77763510e-002	4.23201260e-004	6.46319610e-003
107            	1.16717520e-002	1.36956640e-003	1.85013420e-002	1.76042570e-002	4.21843560e-004	6.37978030e-003
108            	1.16809050e-002	1.33157340e-003	1.83121550e-002	1.74412830e-002	4.20527000e-004	6.30466540e-003
109            	1.16833050e-002	1.29512850e-003	1.81261010e-002	1.73188110e-002	4.18696350e-004	6.22941950e-003
110            	1.16806600e-002	1.25997490e-003	1.79373150e-002	1.71748940e-002	4.17154100e-004	6.16207560e-003
111            	1.16781570e-002	1.22620210e-003	1.77487170e-002	1.70539320e-002	4.15070260e-004	6.09330290e-003
112            	1.16718330e-002	1.19363930e-003	1.75542830e-002	1.68587900e-002	4.13244770e-004	6.02527120e-003
113            	1.16630920e-002	1.16209970e-003	1.73567270e-002	1.67253020e-002	4.11245500e-004	5.95827770e-003
114            	1.16589260e-002	1.13176340e-003	1.71641030e-002	1.65527040e-002	4.09209430e-004	5.89227340e-003
115            	1.16554150e-002	1.10266070e-003	1.69724920e-002	1.64502410e-002	4.07011440e-004	5.83121680e-003
116            	1.16484830e-002	1.07462460e-003	1.67793590e-002	1.63250620e-002	4.04948270e-004	5.77164200e-003
117            	1.16435540e-002	1.04752780e-003	1.65929340e-002	1.61930970e-002	4.02827880e-004	5.70988510e-003
118            	1.16423590e-002	1.02115580e-003	1.64108860e-002	1.60168420e-002	4.00566780e-004	5.65143050e-003
119            	1.16424120e-002	9.95655850e-004	1.62360290e-002	1.58674190e-002	3.98192260e-004	5.59572870e-003
120            	1.16414270e-002	9.70889160e-004	1.60576830e-002	1.57414660e-002	3.95983810e-004	5.54050100e-003
121            	1.16435950e-002	9.46807460e-004	1.58819350e-002	1.56767840e-002	3.93738680e-004	5.48591130e-003
122            	1.16467250e-002	9.23613970e-004	1.57048930e-002	1.54522870e-002	3.91497740e-004	5.43193930e-003
123            	1.16525030e-002	9.00961070e-004	1.55234370e-002	1.52716940e-002	3.89280210e-004	5.37813130e-003
124            	5.66724280e-002	4.25088450e-003	7.10535050e-002	2.16737030e-001	1.52977140e-003	1.72283580e-002
125            	5.68521370e-002	3.82829950e-003	6.88498490e-002	1.88654060e-001	1.48585160e-003	1.68151140e-002
126            	5.76678960e-002	3.43198150e-003	6.60076900e-002	1.69582470e-001	1.46828230e-003	1.61850750e-002
127            	5.86268050e-002	3.05930980e-003	6.34976890e-002	1.51424530e-001	1.45000780e-003	1.57366740e-002
128            	5.87216940e-002	2.71891900e-003	6.04276260e-002	1.31516280e-001	1.42787860e-003	1.51994640e-002
129            	5.72946760e-002	2.41942560e-003	5.65985210e-002	1.13297240e-001	1.39345100e-003	1.47891100e-002
130            	5.48702130e-002	2.16601340e-003	5.26510080e-002	9.88612800e-002	1.36003400e-003	1.43117650e-002
131            	5.25919500e-002	1.94947930e-003	4.93320450e-002	8.85455410e-002	1.32045690e-003	1.38408580e-002
132            	5.09435490e-002	1.76185850e-003	4.69602050e-002	8.05006280e-002	1.28236350e-003	1.33988470e-002
133            	4.95890770e-002	1.59429190e-003	4.45648840e-002	7.32499700e-002	1.23975780e-003	1.29685280e-002
134            	4.81041580e-002	1.44570730e-003	4.15127770e-002	6.66922830e-002	1.20607150e-003	1.25097360e-002
135            	4.62192280e-002	1.31044380e-003	3.79186260e-002	6.06269680e-002	1.16146340e-003	1.21186460e-002
136            	4.39697590e-002	1.19045180e-003	3.45342310e-002	5.55167050e-002	1.12383440e-003	1.17206590e-002
137            	4.16684590e-002	1.08601660e-003	3.16293070e-002	5.10350070e-002	1.08399410e-003	1.13784970e-002
138            	3.95041650e-002	9.92629350e-004	2.92193850e-002	4.65145400e-002	1.04788740e-003	1.10312050e-002
139            	3.75445150e-002	9.12374530e-004	2.69971370e-002	4.25960470e-002	1.01509930e-003	1.07241820e-002
140            	3.57349190e-002	8.42201420e-004	2.47254760e-002	3.91577110e-002	9.83000460e-004	1.04380300e-002
141            	3.39824330e-002	7.80212600e-004	2.24737930e-002	3.58951850e-002	9.49640070e-004	1.02220730e-002
142            	3.22537820e-002	7.24323610e-004	2.04544460e-002	3.27342380e-002	9.18175630e-004	1.00341520e-002
143            	3.05592090e-002	6.73744160e-004	1.87679510e-002	2.96732670e-002	8.88198610e-004	9.82895230e-003
144            	2.89747360e-002	6.27537060e-004	1.73080890e-002	2.69125190e-002	8.58472180e-004	9.66598680e-003
145            	2.75167690e-002	5.87073140e-004	1.60685400e-002	2.43116720e-002	8.30159650e-004	9.51557130e-003
146            	2.62244120e-002	5.51839720e-004	1.49427560e-002	2.19457750e-002	7.99361890e-004	9.40900120e-003
147            	2.50451850e-002	5.21497820e-004	1.38774310e-002	1.97789290e-002	7.71683310e-004	9.30328920e-003
148            	2.39384650e-002	4.94361790e-004	1.29000770e-002	1.79547250e-002	7.42551090e-004	9.21969140e-003
149            	2.28476520e-002	4.70034510e-004	1.19721970e-002	1.62499720e-002	7.15184090e-004	9.13812620e-003
150            	2.17721500e-002	4.48301660e-004	1.11817920e-002	1.47463600e-002	6.87686220e-004	9.05816600e-003
151            	2.07194380e-002	4.29372870e-004	1.04640490e-002	1.34401820e-002	6.82716780e-004	8.97353040e-003
152            	1.97645450e-002	4.11922590e-004	9.83078710e-003	1.21172410e-002	6.44183420e-004	8.88699660e-003
153            	1.88803190e-002	3.96390020e-004	9.23557450e-003	1.10635970e-002	6.17256020e-004	8.81237540e-003
154            	3.74168050e-003	7.82951180e-005	1.77608010e-003	2.69222760e-001	1.82632930e-004	2.66706890e-003
155            	8.84398970e-003	1.50817120e-004	8.45051310e-003	5.76056980e-002	1.65547580e-004	2.59038280e-003
156            	8.13148430e-003	1.48598530e-004	8.08406190e-003	3.21002110e-002	1.60120620e-004	2.58843900e-003
157            	6.42577600e-003	1.27359680e-004	6.27491110e-003	2.80479540e-002	1.56649930e-004	2.58051730e-003
158            	5.37372470e-003	1.14201650e-004	4.99638200e-003	2.06616980e-002	1.53861500e-004	2.56800350e-003
159            	4.84988970e-003	1.06951130e-004	4.15747870e-003	1.42629740e-002	1.51296560e-004	2.55380350e-003
160            	4.57046280e-003	1.03240850e-004	3.56807760e-003	9.79119600e-003	1.48974100e-004	2.54125620e-003
161            	4.37070420e-003	1.01647880e-004	3.14674320e-003	6.94807280e-003	1.46807030e-004	2.53161830e-003
162            	4.22969690e-003	1.00370830e-004	2.84401970e-003	5.20711940e-003	1.44585950e-004	2.52273950e-003
163            	4.11528140e-003	9.91144640e-005	2.62672310e-003	4.14450650e-003	1.42345590e-004	2.51304450e-003
164            	4.01517220e-003	9.79880400e-005	2.46440400e-003	3.39830040e-003	1.40195080e-004	2.50298730e-003
165            	3.92306260e-003	9.71044750e-005	2.33592620e-003	2.90784560e-003	1.38094070e-004	2.49271350e-003
166            	3.83386270e-003	9.62384260e-005	2.22083570e-003	2.55530750e-003	1.36027830e-004	2.48187690e-003
167            	3.74722230e-003	9.53434060e-005	2.12573320e-003	2.29211720e-003	1.34075100e-004	2.47108350e-003
168            	3.66787000e-003	9.44117470e-005	2.04802160e-003	2.09375050e-003	1.32130790e-004	2.46046090e-003
169            	3.59273880e-003	9.34622550e-005	1.97721240e-003	1.92901010e-003	1.30184100e-004	2.44914550e-003
170            	3.52201440e-003	9.24791300e-005	1.91009060e-003	1.76475730e-003	1.28304990e-004	2.43864190e-003
171            	3.45273600e-003	9.14817860e-005	1.85123060e-003	1.65257000e-003	1.26395790e-004	2.42749170e-003
172            	3.38406770e-003	9.05171820e-005	1.79711350e-003	1.54553690e-003	1.24551680e-004	2.41584730e-003
173            	3.31587820e-003	8.95511940e-005	1.74927260e-003	1.45002150e-003	1.22691090e-004	2.40393620e-003
174            	3.25079800e-003	8.85932150e-005	1.70598920e-003	1.37262990e-003	1.20861880e-004	2.39176840e-003
175            	3.18933780e-003	8.76677480e-005	1.66768430e-003	1.30134320e-003	1.19042910e-004	2.37891440e-003
176            	3.13063780e-003	8.67268790e-005	1.63171520e-003	1.23422810e-003	1.17227670e-004	2.36569030e-003
177            	3.07256170e-003	8.57859470e-005	1.59911820e-003	1.17222320e-003	1.15415410e-004	2.35199940e-003
178            	3.01610360e-003	8.48343500e-005	1.56839830e-003	1.11591360e-003	1.13608360e-004	2.33810590e-003
179            	2.96111450e-003	8.38956350e-005	1.54091150e-003	1.06293520e-003	1.11791670e-004	2.32373040e-003
180            	2.90873210e-003	8.29737030e-005	1.51542400e-003	1.01660890e-003	1.09983710e-004	2.30893070e-003
181            	2.85860020e-003	8.20658820e-005	1.49130120e-003	9.74466320e-004	1.08178990e-004	2.29357200e-003
182            	2.81143170e-003	8.11792300e-005	1.46870060e-003	9.35063940e-004	1.06376690e-004	2.27773400e-003
183            	2.76512560e-003	8.02986630e-005	1.44687930e-003	8.93223760e-004	1.04585000e-004	2.26166280e-003
184            	2.71967520e-003	7.94278490e-005	1.42661280e-003	8.56761190e-004	1.02811860e-004	2.24469810e-003
185            	2.67555610e-003	7.85579910e-005	1.40852710e-003	8.22313710e-004	1.01063110e-004	2.22813760e-003
186            	2.63404150e-003	7.77138560e-005	1.39246060e-003	8.13303590e-004	9.92956300e-005	2.21076050e-003
187            	2.59436530e-003	7.68483670e-005	1.37546680e-003	7.62859300e-004	9.75670460e-005	2.19333310e-003
188            	2.55823870e-003	7.60171950e-005	1.35999650e-003	7.44038510e-004	9.58227300e-005	2.17510760e-003
189            	2.52222290e-003	7.51657680e-005	1.34508890e-003	7.18100920e-004	9.41128400e-005	2.15724180e-003
190            	2.48766110e-003	7.43258190e-005	1.33074500e-003	6.96009430e-004	9.24115380e-005	2.13864770e-003
191            	2.45470650e-003	7.34827430e-005	1.31708410e-003	6.77748310e-004	9.07121870e-005	2.12039500e-003
192            	2.42291410e-003	7.26463470e-005	1.30382230e-003	6.54610830e-004	8.90335240e-005	2.10091890e-003
193            	2.39229460e-003	7.18183470e-005	1.29088210e-003	6.35726820e-004	8.73680260e-005	2.08234220e-003
194            	2.36247440e-003	7.10010860e-005	1.27811850e-003	6.17188820e-004	8.57239580e-005	2.06249730e-003
195            	2.33415710e-003	7.01833700e-005	1.26590850e-003	6.00493260e-004	8.40945270e-005	2.04309090e-003
196            	2.30797970e-003	6.93778190e-005	1.25402850e-003	5.82517560e-004	8.24790340e-005	2.02236460e-003
197            	2.28434830e-003	6.85745900e-005	1.24284130e-003	5.67614580e-004	8.08694320e-005	2.00217010e-003
198            	2.26192120e-003	6.77818890e-005	1.23129490e-003	5.54584100e-004	7.92767780e-005	1.98147500e-003
199            	2.24008910e-003	6.69970740e-005	1.21995950e-003	5.41372750e-004	7.77040600e-005	1.96087390e-003
200            	2.21878590e-003	6.62261580e-005	1.20864210e-003	5.28540420e-004	7.61448900e-005	1.93947110e-003
201            	2.19905110e-003	6.54619970e-005	1.19741930e-003	5.15188460e-004	7.46098550e-005	1.91835160e-003
202            	2.18017630e-003	6.47063490e-005	1.18635670e-003	5.02053160e-004	7.30949760e-005	1.89652130e-003
203            	2.16175010e-003	6.39605750e-005	1.17527570e-003	4.89472040e-004	7.15956030e-005	1.87498230e-003
204            	2.14438790e-003	6.32318480e-005	1.16437870e-003	4.79825200e-004	7.01247080e-005	1.85291360e-003
205            	2.12865810e-003	6.25070300e-005	1.15377110e-003	4.71030870e-004	6.86777350e-005	1.83105500e-003
206            	2.11365440e-003	6.17889630e-005	1.14322950e-003	4.62372870e-004	6.72463410e-005	1.80875470e-003
207            	2.09928760e-003	6.10805340e-005	1.13231670e-003	4.54653640e-004	6.58400520e-005	1.78666690e-003
208            	2.08547890e-003	6.03795500e-005	1.12164950e-003	4.44687820e-004	6.44523120e-005	1.76408590e-003
209            	2.07326440e-003	5.96862510e-005	1.11095240e-003	4.35521100e-004	6.30833730e-005	1.74176730e-003
210            	2.06220810e-003	5.89975820e-005	1.10016180e-003	4.26099930e-004	6.17288220e-005	1.71913430e-003
211            	2.05144130e-003	5.83148280e-005	1.08955740e-003	4.17257750e-004	6.03916210e-005	1.69657150e-003
212            	2.04142250e-003	5.76383580e-005	1.07863240e-003	4.10193520e-004	5.90751880e-005	1.67354370e-003
213            	2.03214380e-003	5.69660480e-005	1.06769880e-003	4.01247830e-004	5.77804920e-005	1.65070170e-003
214            	2.02383320e-003	5.62999750e-005	1.05687070e-003	3.93080540e-004	5.65100170e-005	1.62771880e-003
215            	2.01603040e-003	5.56369610e-005	1.04604310e-003	3.85127230e-004	5.52616360e-005	1.60482750e-003
216            	2.00911340e-003	5.49808240e-005	1.03511320e-003	3.78293190e-004	5.40348480e-005	1.58192420e-003
217            	2.00271220e-003	5.43307380e-005	1.02408380e-003	3.72107850e-004	5.28306170e-005	1.55920450e-003
218            	1.99684460e-003	5.36846320e-005	1.01304200e-003	3.64488070e-004	5.16364840e-005	1.53637280e-003
219            	1.99148490e-003	5.30443600e-005	1.00211800e-003	3.57233250e-004	5.04677500e-005	1.51340180e-003
220            	1.98615020e-003	5.24101640e-005	9.91123020e-004	3.50488860e-004	4.93140050e-005	1.49059740e-003
221            	1.98070370e-003	5.17841600e-005	9.80290650e-004	3.44059730e-004	4.81816770e-005	1.46772430e-003
222            	1.97539290e-003	5.11642050e-005	9.69445470e-004	3.36563540e-004	4.70739350e-005	1.44499130e-003
223            	1.97025540e-003	5.05512210e-005	9.58448510e-004	3.29581810e-004	4.59803020e-005	1.42227710e-003
224            	1.96555500e-003	4.99429760e-005	9.47499960e-004	3.21886440e-004	4.49015340e-005	1.39942650e-003
225            	1.96147550e-003	4.93417450e-005	9.36589620e-004	3.16091880e-004	4.38532720e-005	1.37676330e-003
226            	1.95729910e-003	4.87463310e-005	9.25584980e-004	3.10672840e-004	4.28172490e-005	1.35411560e-003
227            	1.95297710e-003	4.81570800e-005	9.14631000e-004	3.05022750e-004	4.18137610e-005	1.33176920e-003
228            	1.94860950e-003	4.75733830e-005	9.03647260e-004	2.99466120e-004	4.08262030e-005	1.30957250e-003
229            	1.94409550e-003	4.69958160e-005	8.92643130e-004	2.94706050e-004	3.98584250e-005	1.28764040e-003
230            	1.93954640e-003	4.64240520e-005	8.81660460e-004	2.88525510e-004	3.89124700e-005	1.26589910e-003
231            	1.93491010e-003	4.58561250e-005	8.70722120e-004	2.82765530e-004	3.79895050e-005	1.24426970e-003
232            	1.93008480e-003	4.52931490e-005	8.59906100e-004	2.77832810e-004	3.70860670e-005	1.22292600e-003
233            	1.92507450e-003	4.47341780e-005	8.49249740e-004	2.73984860e-004	3.61960560e-005	1.20180930e-003
234            	1.91998560e-003	4.41811150e-005	8.38634110e-004	2.68870730e-004	3.53330960e-005	1.18083230e-003
235            	1.91478440e-003	4.36329090e-005	8.28004940e-004	2.64324120e-004	3.44842560e-005	1.16008200e-003
236            	1.90955630e-003	4.30891060e-005	8.17469020e-004	2.59620940e-004	3.36560150e-005	1.13967940e-003
237            	1.90388560e-003	4.25501530e-005	8.06826480e-004	2.54838450e-004	3.28469070e-005	1.11934610e-003
