{-0.779756,-3.056307,-0.056547}
{-0.752067,-2.953614,-0.054082}
{-0.721395,-2.993986,-0.050901}
{-0.711147,-2.956067,-0.039481}
{-0.684088,-3.073022,-0.015703}
{-0.677804,-2.926157,-0.041039}
{-0.660966,-2.841356,-0.058286}
{-0.601981,-2.982609,-0.046803}
{-0.582911,-2.925457,-0.056012}
{-0.569997,-2.884731,-0.055164}
{-0.55505,-2.924055,-0.047986}
{-0.598544,-2.835663,-0.05841}
{-0.576253,-2.832302,-0.057533}
{-0.487327,-2.915732,-0.046547}
{-0.497179,-2.908729,-0.046978}
{-0.530158,-2.885558,-0.045512}
{-0.275689,-3.066962,-0.028144}
{-0.440682,-2.935592,-0.047354}
{-0.500092,-2.934234,-0.055502}
{-0.453351,-3.000646,-0.050843}
{-0.533494,-2.967458,-0.047345}
{-0.613739,-2.968065,-0.041737}
{-0.697715,-2.993599,-0.028529}
{-0.724818,-2.959877,-0.029029}
{-0.695278,-3.003041,-0.028653}
{-0.68166,-3.022257,-0.028508}
{-0.722487,-3.100252,-0.017878}
{-0.814716,-3.199646,-0.002058}
{-0.945434,-3.208393,0.01154}
{-0.963915,-3.186298,0.011878}
{-0.997133,-3.158769,0.011666}
{-1.006901,-3.182581,0.011687}
{-1.098317,-3.286453,0.018619}
{-1.229777,-3.432622,0.027431}
{-1.375997,-3.676997,0.037371}
{-1.404412,-3.799913,0.038993}
{-1.407105,-3.474157,0.036528}
{-1.753595,-4.369464,0.045162}
{-1.609376,-3.873657,0.034784}
{-1.506036,-3.405426,0.026203}
{-1.736369,-3.883569,0.036376}
{-1.577575,-3.485022,0.028167}
{-1.489664,-3.204123,0.021804}
{-1.705894,-3.595272,0.026609}
{-1.811071,-3.810076,0.029808}
{-1.552049,-3.23155,0.019745}
{-1.878082,-3.878314,0.02379}
{-1.567899,-3.308706,0.014103}
{-1.479836,-3.160919,0.010041}
{-1.792565,-3.78157,0.014085}
{-1.738749,-3.699466,0.013884}
{-1.386536,-3.03344,0.010317}
{-1.382005,-3.034933,0.010592}
{-0.693463,-2.975147,-0.07549}
{-0.692767,-3.11905,-0.056183}
{-0.701531,-3.279807,-0.032596}
{-0.678748,-2.923687,-0.064975}
{-0.649556,-2.8818,-0.063009}
{-0.597354,-3.055837,-0.041687}
{-0.654908,-2.870694,-0.056101}
{-0.565961,-3.00427,-0.051397}
{-0.583847,-2.894983,-0.060446}
{-0.585709,-2.823729,-0.068621}
{-0.473434,-2.918968,-0.052382}
{-0.378664,-3.008751,-0.036806}
{-0.501045,-2.805353,-0.085157}
{-0.356186,-2.975827,-0.053305}
{-0.398925,-2.935106,-0.057928}
{-0.550894,-2.809584,-0.068899}
{-0.54361,-2.83872,-0.063531}
{-0.499082,-2.860528,-0.064768}
{-0.534402,-2.853205,-0.063879}
{-0.306159,-2.989767,-0.069955}
{-0.251026,-3.054356,-0.06703}
{-0.477343,-2.932074,-0.056957}
{-0.17359,-3.244413,-0.044974}
{-0.383336,-3.144526,-0.037729}
{-0.646986,-3.071188,-0.028139}
{-0.336362,-3.509533,-0.024835}
{-0.526135,-3.295221,-0.016382}
{-0.7069,-3.247922,-0.000851}
{-0.601832,-3.850481,0.020976}
{-0.827008,-3.437433,0.015318}
{-0.992227,-3.449331,0.017044}
{-0.981844,-4.06434,0.028426}
{-1.067943,-3.573898,0.029469}
{-1.230285,-3.657553,0.040718}
{-1.354294,-3.863902,0.049474}
{-1.334667,-3.593871,0.043041}
{-1.403264,-3.479078,0.041001}
{-1.313153,-3.227976,0.034165}
{-1.489594,-3.443882,0.037018}
{-1.695147,-3.764709,0.041267}
{-1.87632,-4.097382,0.045321}
{-1.610624,-3.41172,0.038417}
{-1.862931,-3.834805,0.039292}
{-1.852502,-3.803664,0.033201}
{-1.591758,-3.307174,0.022899}
{0.480171,-1.85275,-0.027087}
{1.29393,-1.596378,0.103741}
{1.367049,-1.736482,0.124656}
{1.36045,-1.613488,0.130516}
{1.414563,-1.523838,0.086253}
{-1.718427,-0.139938,-0.317187}
{1.060461,-1.150844,0.166564}
{-1.585899,0.220412,-0.265989}
{1.438821,-1.389816,0.085139}
{-1.438752,0.518298,-0.247671}
{0.548753,-1.662841,0.064387}
{-1.307855,0.795999,-0.192714}
{1.564019,-1.558653,0.067312}
{-1.127237,0.965105,-0.109379}
{1.659964,-1.631747,0.009408}
{-0.881053,1.019173,-0.009174}
{1.641057,-1.626644,0.033781}
{-0.556622,0.797551,0.007858}
{1.617485,-1.703998,0.080819}
{-0.23395,0.464544,-0.011779}
{1.545478,-1.839971,0.102667}
{0.178894,0.0001,0.060336}
{1.401133,-2.060752,0.135507}
{0.776356,-0.605967,0.188854}
{1.129743,-2.394031,0.20537}
{0.955402,0.113054,0.184203}
{1.699253,-1.3437,0.190792}
{0.859251,0.998495,-2.463992}
{0.722217,-2.887759,0.316249}
{2.680531,-1.792407,0.093697}
{1.137062,1.024303,-1.191128}
{0.236337,-3.597286,0.373431}
{3.736113,-1.784522,0.078899}
{1.161201,0.643825,-0.65961}
{-0.497804,-4.376042,0.373217}
{3.192419,-1.66761,0.21546}
{0.986673,0.017542,-0.342667}
{-1.377981,-4.899872,0.284868}
{2.082322,-2.011301,0.441451}
{1.020983,-0.268623,-0.157962}
{-2.468867,-5.436438,0.120607}
{0.664095,-2.711956,0.606968}
{0.866544,-0.674489,-0.034746}
{-3.433584,-5.359754,-0.127698}
{-1.384499,-3.649481,0.549837}
{0.712041,-1.050352,0.062266}
{-2.890913,-3.915106,-0.095158}
{-4.270925,-4.237197,0.437574}
{0.55531,-1.390138,0.115492}
{-5.144014,-4.205187,-0.208754}
{-5.409704,-3.914793,0.392953}
{0.351989,-1.705515,0.11762}
{-3.639944,-2.705595,-0.209454}
{-5.270728,-4.129926,0.473966}
{0.157082,-1.931441,0.10754}
{-4.789735,-4.564016,0.518692}
{-4.687948,-3.099493,-0.055957}
{-0.044497,-2.132515,0.096968}
{-2.387512,-2.837911,0.323354}
{-4.404112,-3.138468,-0.167595}
{-0.217409,-2.300036,0.095879}
{1.525468,-0.554756,-1.944857}
{-4.019053,-3.149866,0.031686}
{-0.363897,-2.446569,0.10203}
{0.920289,-0.11752,-0.895128}
{-3.763181,-3.233575,0.197308}
{-0.491297,-2.587887,0.117402}
{-3.597487,-3.429787,0.279196}
{-0.605068,-2.723049,0.146876}
{0.251717,-0.282603,-0.39875}
{-3.14735,-3.371907,0.139907}
{-0.719309,-2.870609,0.189478}
{-0.348293,-0.539779,-0.12806}
{-1.999668,-2.70413,0.075834}
{-0.842438,-3.050737,0.239637}
{-0.730324,-0.889891,0.053897}
{-2.682928,-3.307611,0.059077}
{-0.976538,-3.235381,0.253636}
{-0.96488,-1.279713,0.152264}
{-1.840739,-2.777691,0.047122}
{-1.076354,-3.323961,0.194715}
{-1.148806,-1.638182,0.21041}
{-1.976836,-2.90718,0.045126}
{-1.095835,-3.214431,0.048152}
{-1.318157,-1.987247,0.240435}
{-1.759354,-2.84662,0.030741}
{-0.934599,-2.570613,0.037205}
{-1.486887,-2.272044,0.227117}
{-2.015184,-3.168442,0.026346}
{-1.021178,-2.754869,0.023353}
{-1.5508,-2.409653,0.145838}
{-1.421438,-2.40986,0.05945}
{-0.973617,-2.609848,0.024103}
{-1.595379,-2.81178,0.024244}
{-1.226201,-2.230437,0.044291}
{-1.242568,-3.353785,0.016651}
{0.337658,-1.423868,0.097044}
{0.176953,-1.174661,0.091343}
{0.485302,-1.402237,0.092093}
{-1.542951,-2.660203,0.025334}
{-1.316759,-2.499732,0.026662}
{0.281609,-1.35188,0.084683}
{-1.547407,-2.867138,0.01918}
{0.775893,-1.597088,0.154037}
{-1.515812,-2.838121,0.016616}
{0.526386,-1.576007,0.073236}
{-1.570382,-3.266454,0.020113}
{-1.227932,-1.507425,-0.033761}
{0.400158,-1.534566,0.043481}
{-1.820163,-3.732458,0.024723}
{-1.219465,-1.421577,-0.050591}
{0.5019,-1.586316,0.034615}
{-1.475015,-3.137508,0.011327}
{-1.297555,-1.323793,-0.060048}
{-1.859099,-3.769982,0.020916}
{0.77789,-1.43621,0.118008}
{-1.053894,-1.337357,-0.074978}
{-1.597791,-3.326928,0.014965}
{1.151702,-1.249989,0.210664}
{-1.436065,-3.056331,0.01284}
{-1.379837,-1.199532,-0.076845}
{1.483721,-1.251144,0.17341}
{-1.798407,-3.747631,0.017902}
{1.461159,-1.313726,0.180376}
{-1.226719,-1.116634,-0.099126}
{-1.833061,-3.817814,0.019206}
{1.356209,-1.397043,0.238373}
{-0.66647,-3.442544,-0.035885}
{-1.442657,-0.965406,-0.160903}
{1.314666,-1.474143,0.265259}
{-0.637745,-2.997858,-0.084604}
{1.284818,-1.529245,0.260921}
{-1.810031,-0.731434,-0.234123}
{-0.629056,-2.940129,-0.091231}
{1.182035,-1.463789,0.214093}
{-0.597857,-3.196842,-0.061334}
{0.987717,-1.214611,0.196423}
{-1.809263,-0.430664,-0.314113}
{-0.567705,-2.860415,-0.093366}
{0.951408,-1.143578,0.224138}
{-0.556868,-3.066408,-0.055859}
{0.954712,-1.139674,0.237816}
{-1.757638,-0.162953,-0.313035}
{-0.570676,-2.899011,-0.079656}
{1.112225,-1.226701,0.246858}
{-0.542602,-2.852563,-0.081356}
{-1.624123,0.220309,-0.257063}
{1.111028,-1.073674,0.251188}
{-0.423479,-3.060353,-0.049407}
{1.082675,-0.912606,0.257124}
{-1.455738,0.557169,-0.238226}
{-0.462291,-3.003855,-0.052804}
{1.160008,-0.901572,0.249819}
{-0.506841,-2.86457,-0.067104}
{-1.307011,0.903085,-0.206243}
{1.207969,-0.847231,0.243702}
{-0.421411,-2.916738,-0.061709}
{1.229256,-0.75356,0.227024}
{-0.48056,-2.834085,-0.07905}
{-1.110663,1.146693,-0.138297}
{1.328716,-0.775553,0.131654}
{-0.443713,-2.83535,-0.08837}
{-0.802725,1.34685,-0.042726}
{-0.316902,-2.915872,-0.089769}
{1.429834,-0.728398,0.136962}
{-0.341608,-2.876643,-0.090632}
{-0.396338,1.302589,0.013734}
{1.450419,-0.660628,0.204516}
{-0.221202,-2.924363,-0.086783}
{1.435236,-0.659903,0.241068}
{0.024261,1.050745,0.001894}
{-0.050621,-3.045798,-0.076397}
{1.356272,-0.740444,0.290959}
{-0.474751,-2.864108,-0.066989}
{0.534625,0.571157,0.059101}
{1.069585,-1.004056,0.38638}
{-0.210396,-3.021417,-0.077145}
{0.901748,-1.397416,0.42889}
{-0.226007,-3.036912,-0.071174}
{1.176786,-0.021968,0.211094}
{0.582813,-2.036045,0.427563}
{-0.503729,-2.869604,-0.062498}
{1.959238,-0.641302,0.347973}
{0.029707,-2.908724,0.367999}
{-0.36311,-3.021855,-0.05595}
{-0.42968,-3.015649,-0.047724}
{-0.894219,-4.093999,0.225694}
{2.709065,-1.16645,0.32907}
{-0.582259,-3.016672,-0.033443}
{-1.903904,-4.880755,0.003883}
{3.428336,-1.155495,0.401176}
{-0.651632,-3.119885,-0.014147}
{-2.93898,-5.141675,-0.368683}
{-0.679871,-3.116013,-0.01063}
{-4.893968,-4.847279,-0.598028}
{-0.723595,-3.152176,-0.004319}
{-6.180674,-3.701812,-0.506562}
{-0.719657,-3.17476,-0.003501}
{2.866711,-1.144865,0.584922}
{-0.822997,-3.263833,0.012778}
{-5.719789,-2.570099,-0.097794}
{-0.956756,-3.411668,0.021563}
{-5.143429,-2.651444,-0.060774}
{-4.554876,-2.611773,0.014636}
{-1.065055,-3.534275,0.030967}
{1.888797,-1.256265,0.763156}
{-1.077621,-3.442227,0.031095}
{-4.107682,-2.704408,0.167294}
{-1.042024,-2.707896,0.019028}
{1.017978,-1.355837,0.826724}
{-1.258934,-3.848256,0.047822}
{-3.785182,-2.883027,0.287324}
{-1.330062,-4.033293,0.054519}
{-3.474424,-3.218515,0.321364}
{-0.920539,-2.904998,0.728404}
{-1.31438,-3.33505,0.038411}
{-1.911052,-2.424647,0.105366}
{-4.387262,-3.977983,0.32632}
{-1.629601,-4.098894,0.057404}
{-2.370423,-2.835347,0.094119}
{-5.862527,-3.76789,0.217902}
{-1.700576,-4.185835,0.063032}
{-2.055868,-2.842701,0.053428}
{-5.083206,-4.147759,0.324703}
{-1.87395,-2.715315,0.048257}
{-1.472149,-3.252133,0.046335}
{-3.99747,-5.178516,0.343377}
{-2.537362,-3.456428,0.043767}
{-1.798327,-3.858566,0.05822}
{-2.595276,-6.444427,0.168102}
{-1.709966,-2.745447,0.03446}
{-1.645996,-3.46486,0.04597}
{-0.688414,-6.730233,-0.282949}
{-1.918254,-3.013532,0.027136}
{-1.540865,-3.210007,0.036232}
{0.052818,-6.107045,-0.564389}
{-1.695339,-2.86387,0.023537}
{-1.735823,-3.581315,0.039028}
{0.341386,-5.328408,-0.798184}
{-1.819041,-3.692368,0.035473}
{0.182065,-1.074393,0.069107}
{0.554506,-4.733345,-0.992089}
{-1.680161,-3.416176,0.02302}
{0.20241,-1.141914,0.091485}
{0.707818,-4.243718,-1.233239}
{-2.080069,-4.06635,0.032206}
{0.479814,-1.28924,0.099193}
{1.676972,-3.27571,-1.49449}
{-1.723308,-3.438522,0.023202}
{0.293318,-1.322574,0.085513}
{2.096053,-1.659873,-1.022376}
{-1.460167,-2.98906,0.016316}
{0.385346,-1.214573,0.094015}
{-1.734602,-3.488052,0.021469}
{1.238547,-1.011531,-0.330448}
{0.362755,-1.165517,0.096729}
{-1.032448,-2.663681,0.018662}
{-1.601414,-3.238006,0.019422}
{0.528793,-0.799493,-0.094334}
{1.023914,-1.123844,0.221927}
{-1.221968,-2.350918,-0.000018}
{-1.791098,-3.591936,0.020073}
{-0.080503,-0.903902,0.054844}
{0.497193,-0.87479,0.136618}
{-1.366285,-2.253918,0.011824}
{-1.547622,-3.201913,0.017841}
{-0.483176,-1.176286,0.130618}
{1.186486,-0.827898,0.26587}
{-1.332228,-2.248361,-0.000116}
{-1.44206,-3.043321,0.01635}
{-0.763555,-1.475492,0.164401}
{0.8197,-0.546667,0.196907}
{-1.451327,-2.256681,-0.006207}
{-0.60909,-3.077441,-0.077659}
{-0.983598,-1.801136,0.213494}
{1.225829,-0.700669,0.246745}
{-1.314926,-2.319344,-0.021676}
{-0.59251,-3.160856,-0.076483}
{-1.185934,-2.097149,0.239608}
{1.160787,-0.73375,0.250644}
{-1.559177,-2.259377,-0.012324}
{-0.626028,-2.95433,-0.090928}
{-1.361112,-2.36339,0.228271}
{1.062852,-0.846558,0.282251}
{-1.637926,-2.261829,-0.020088}
{-0.560517,-3.192795,-0.071142}
{-1.449126,-2.476559,0.146231}
{1.013689,-0.935059,0.302237}
{-1.509855,-2.291039,-0.05881}
{-0.567665,-2.90976,-0.089066}
{-1.314006,-2.30764,0.072044}
{0.939483,-1.046223,0.325268}
{-2.138175,-2.235057,-0.289755}
{-0.534229,-2.925123,-0.08379}
{-1.173428,-2.236967,0.046565}
{0.809393,-1.031485,0.279414}
{-2.279572,-2.174295,-0.447327}
{-0.392665,-3.199662,-0.043218}
{-1.405826,-2.593199,0.025087}
{0.586374,-0.720559,0.215979}
{-2.363849,-2.150172,-0.238132}
{-0.421422,-3.027574,-0.072419}
{-1.310922,-2.513598,0.026642}
{0.616527,-0.633234,0.286083}
{-2.497034,-2.134101,-0.128855}
{-0.429616,-2.942988,-0.082957}
{-1.405601,-2.701393,0.023157}
{0.571326,-0.56944,0.320586}
{-2.665989,-2.190074,-0.096492}
{-0.451251,-2.884346,-0.094292}
{-1.414118,-2.744281,0.019378}
{0.635256,-0.542207,0.356535}
{-2.833565,-2.242819,-0.066832}
{-0.406942,-2.901281,-0.095558}
{-1.241024,-1.600456,-0.035579}
{0.736809,-0.461072,0.381632}
{-2.956226,-2.203783,-0.009124}
{-0.269471,-2.980301,-0.091246}
{-1.239438,-1.53666,-0.05299}
{0.757613,-0.365607,0.381152}
{-3.074514,-2.222476,0.065419}
{-0.141221,-3.08246,-0.087262}
{-1.318079,-1.428477,-0.061778}
{0.81153,-0.292067,0.389651}
{-3.18664,-2.263268,0.154637}
{-0.497092,-2.803294,-0.087633}
{-1.054457,-1.342868,-0.0751}
{0.852137,-0.154774,0.384839}
{-3.230043,-2.320895,0.280855}
{-0.127459,-3.015513,-0.097677}
{-1.408596,-1.296527,-0.071981}
{0.88857,-0.035235,0.352952}
{-3.197957,-2.42938,0.385065}
{-0.198349,-2.956812,-0.096605}
{-1.258464,-1.213397,-0.095461}
{0.827486,0.193037,0.300666}
{-2.961319,-2.387968,0.498656}
{-0.322486,-2.841259,-0.096505}
{-1.499533,-1.064532,-0.150367}
{0.897235,0.389838,0.320333}
{-2.265928,-2.370501,0.569653}
{-0.344653,-2.825517,-0.097869}
{-1.837255,-0.841695,-0.219033}
{0.92468,0.568746,0.391048}
{-1.008311,-1.782786,0.656459}
{-0.392137,-2.815207,-0.089339}
{-1.849205,-0.511796,-0.304224}
{0.941078,0.730386,0.447186}
{0.464628,-0.55021,0.173949}
{-0.30687,-2.889292,-0.07591}
{-1.814214,-0.247057,-0.29427}
{0.916532,0.828446,0.507748}
{2.88061,0.273594,-2.263204}
{-0.237897,-2.957117,-0.06395}
{-1.691908,0.120791,-0.23704}
{0.813832,0.837051,0.581871}
{-0.377219,-2.910951,-0.06316}
{0.802563,0.691734,0.610579}
{-0.121438,-3.096624,-0.039468}
{0.761407,0.422317,0.61239}
{-0.089873,-3.146974,-0.029924}
{0.711707,0.028955,0.627303}
{-0.470772,-2.943869,-0.025891}
{-0.188469,-3.40553,0.000015}
{0.322344,-0.828128,0.611094}
{-0.363104,-3.310162,0.000341}
{-0.605233,-1.961084,0.305908}
{-0.635664,-3.273897,0.009809}
{-3.024625,-3.370325,-0.325583}
{-6.220449,-4.418883,-0.739224}
{-0.442687,-3.690656,0.042435}
{-7.901605,-3.215585,-0.777037}
{-0.6878,-3.374905,0.0366}
{-1.530554,0.469214,-0.213159}
{-5.995673,-2.119747,-0.139705}
{-1.377463,0.838709,-0.196309}
{-0.818068,-3.69131,0.04356}
{-5.30162,-2.038949,0.028768}
{-1.147575,1.205916,-0.170697}
{-0.902166,-3.825592,0.051195}
{-4.565554,-2.062595,0.106814}
{-0.816604,1.477049,-0.079047}
{-4.055368,-2.271801,0.209142}
{-1.073957,-3.319593,0.034686}
{-0.359944,1.617377,-0.001431}
{-3.695637,-2.572294,0.305445}
{0.154958,1.582403,0.018623}
{-1.172443,-3.737458,0.056941}
{-3.39463,-2.934054,0.310338}
{0.709986,1.240508,0.082585}
{-1.214279,-3.568533,0.052615}
{-3.241147,-3.050274,0.212643}
{2.495075,0.29624,-1.055324}
{-1.919806,-2.353485,0.097734}
{-1.358556,-3.410662,0.051206}
{2.18928,0.018382,-0.565111}
{-2.42478,-2.933602,0.06218}
{-1.483036,-3.342845,0.050512}
{1.670625,-0.456534,-0.274694}
{-2.168752,-2.855681,0.050733}
{1.480742,-0.594755,-0.10362}
{-1.553547,-3.577401,0.054367}
{-1.681989,-2.662388,0.037788}
{1.188397,-0.940823,0.006296}
{-1.979164,-2.943235,0.036443}
{-1.687422,-3.67765,0.059889}
{0.921998,-1.251818,0.084882}
{-2.113559,-3.232893,0.023506}
{-1.92782,-4.165333,0.071674}
{0.701434,-1.551142,0.127018}
{-1.790243,-2.9578,0.022795}
{-1.646805,-3.46358,0.046234}
{0.45,-1.824685,0.127174}
{-1.969697,-3.878977,0.058852}
{0.208365,-1.061954,0.059013}
{0.225062,-2.019841,0.119409}
{-2.014399,-3.926752,0.059989}
{0.005234,-2.20469,0.109249}
{0.200404,-0.84329,0.059455}
{-1.603229,-3.135293,0.037715}
{-0.184534,-2.356888,0.10796}
{-1.571778,-3.077821,0.028335}
{0.155025,-0.874633,0.083334}
{-0.340461,-2.497441,0.113746}
{-1.81111,-3.517114,0.030394}
{0.298511,-0.789034,0.11434}
{-0.473185,-2.637484,0.12883}
{-1.673919,-3.234355,0.027458}
{-0.589098,-2.774456,0.157697}
{0.531762,-0.761418,0.120112}
{-2.20213,-4.145326,0.029205}
{-0.703415,-2.924358,0.199327}
{0.234749,-0.453403,0.132966}
{-1.761039,-3.446636,0.022102}
{-0.824742,-3.107531,0.245978}
{-1.509829,-3.044745,0.017607}
{0.27466,-0.42689,0.170643}
{-0.961824,-3.28011,0.25247}
{-1.731677,-3.460677,0.020241}
{0.442428,-0.31975,0.192591}
{-1.035861,-3.299438,0.18295}
{-1.518392,-3.149614,0.017562}
{-0.907074,-2.542655,0.036498}
{0.896931,-0.155474,0.244209}
{-1.788258,-3.59307,0.020035}
{-0.965734,-2.725469,0.030987}
{0.907899,0.054441,0.227857}
{-0.464078,-3.01043,-0.091155}
{-1.122437,-3.201163,0.015973}
{-0.496272,-3.313922,-0.072017}
{0.879341,0.036242,0.280715}
{-1.006554,-2.728268,0.022447}
{-0.480519,-2.985177,-0.103175}
{0.791972,-0.0215,0.286477}
{-1.089012,-2.931991,0.020562}
{-0.496912,-2.920122,-0.119524}
{-1.051495,-2.737845,0.01782}
{0.708392,-0.169296,0.302592}
{1.314414,0.742613,0.231372}
{-0.397682,-3.352429,-0.06102}
{-1.271623,-3.386335,0.010501}
{1.990844,0.190447,0.406045}
{-0.448963,-3.145696,-0.077083}
{0.631831,-0.26666,0.346643}
{0.502395,-0.420935,0.397657}
{-0.427287,-2.98267,-0.091698}
{-1.268163,-2.410616,0.01085}
{0.084952,-0.496437,0.359324}
{-0.444877,-2.867755,-0.103742}
{-0.217795,-0.127526,0.037226}
{-1.307954,-2.35625,0.012021}
{-0.394674,-2.941578,-0.10095}
{-7.960805,-1.220177,-1.508516}
{-1.248971,-2.41379,0.003491}
{-6.180763,-1.052227,-0.325435}
{-0.248032,-3.085574,-0.096659}
{-5.136812,-1.238117,-0.045639}
{-0.16561,-3.135064,-0.1004}
{-1.365869,-2.402742,-0.001632}
{2.492251,-0.310184,0.51424}
{-4.377986,-1.523787,0.109824}
{-0.320007,-2.832021,-0.122614}
{-1.567521,-2.348633,0.004011}
{2.906652,-0.387789,0.641269}
{-3.876014,-1.83967,0.218277}
{-0.24588,-2.923004,-0.112059}
{-1.438774,-2.350422,-0.013951}
{1.368842,-0.252865,0.297682}
{-3.573746,-2.261937,0.304271}
{-0.336905,-2.820217,-0.117411}
{-1.419793,-2.370186,-0.042612}
{0.619519,-0.056158,0.341835}
{-3.236808,-2.618083,0.298708}
{-0.269167,-2.832824,-0.109577}
{-1.601689,-2.326882,-0.083974}
{0.611963,0.231909,0.429264}
{-3.188003,-2.861877,0.219223}
{-0.128443,-2.900731,-0.098887}
{-2.053314,-2.275453,-0.243495}
{0.207247,0.382821,0.192301}
{-2.780862,-2.797737,0.118411}
{-0.323352,-2.818684,-0.100574}
{-2.1683,-2.258926,-0.336793}
{-0.797785,-1.209548,0.259135}
{-2.105824,-2.658779,0.066845}
{0.080493,-2.963311,-0.082722}
{-2.231763,-2.258855,-0.160935}
{-6.733766,-2.148781,-0.173847}
{-2.108306,-2.707045,0.05549}
{0.090708,-2.943986,-0.080851}
{-2.348037,-2.285878,-0.08739}
{-4.789792,-2.766856,0.2782}
{-2.057168,-2.892093,0.045479}
{-0.182587,-2.823117,-0.087895}
{-2.496262,-2.452983,-0.072838}
{-3.487607,-3.655688,0.372146}
{-2.10914,-3.004747,0.040032}
{0.199746,-3.082755,-0.069436}
{-2.664195,-2.60199,-0.059327}
{-2.09151,-4.485027,0.341045}
{-1.576183,-2.653227,0.030276}
{-0.213364,-2.939614,-0.063474}
{-2.804771,-2.817908,-0.052249}
{-0.767071,-4.738514,0.201571}
{-1.947842,-3.094893,0.020047}
{-0.127429,-3.043009,-0.04248}
{-2.932692,-3.000795,-0.015969}
{-0.029306,-4.519066,0.031024}
{-0.054746,-0.666629,0.079744}
{-0.07325,-3.122609,-0.023191}
{-3.04997,-3.216554,0.041911}
{0.42994,-4.356587,-0.096972}
{0.123188,-0.538489,0.050097}
{-0.422484,-2.911266,-0.024022}
{-3.12993,-3.535408,0.112072}
{0.695107,-4.009671,-0.256709}
{-0.007662,-0.401122,0.06503}
{-0.237502,-3.224476,-0.007901}
{-3.156291,-3.801971,0.193505}
{0.772776,-3.573066,-0.393568}
{0.028976,-0.176306,0.071741}
{-0.321871,-3.256215,0.005726}
{-3.110569,-4.200961,0.236989}
{1.532908,-3.074692,-0.537973}
{0.000914,-0.233803,0.11714}
{-0.555269,-3.262263,0.018811}
{-2.651453,-4.366117,0.244317}
{1.515187,-1.977506,-0.264885}
{0.219825,-0.135632,0.142585}
{-0.571532,-3.516234,0.046145}
{-2.043698,-4.491818,0.233794}
{1.079155,-1.472016,-0.089164}
{0.345562,-0.148005,0.164669}
{-0.688169,-3.320189,0.040137}
{-0.94706,-2.023376,0.133855}
{0.091666,0.033546,0.157045}
{0.476378,-1.230727,0.063892}
{-0.77669,-3.779866,0.052082}
{4.658007,-1.336868,-1.856529}
{0.476908,0.425507,0.207659}
{-0.024228,-1.285139,0.137623}
{-0.834193,-3.875625,0.05808}
{3.671087,-0.983301,-0.807606}
{0.449413,0.847646,0.187391}
{-0.371766,-1.467727,0.163334}
{-1.096035,-3.309885,0.040931}
{2.899795,-0.796404,-0.43078}
{0.490885,0.886244,0.232209}
{-0.648887,-1.71069,0.184277}
{-1.247659,-4.343914,0.09008}
{2.079213,-1.011339,-0.18219}
{-0.886501,-1.965489,0.222467}
{0.400251,0.878908,0.282509}
{-1.276456,-3.852842,0.079592}
{1.789794,-1.062529,-0.033841}
{-1.092136,-2.239688,0.2449}
{0.308183,0.768804,0.283286}
{-1.472488,-3.842287,0.079066}
{1.375995,-1.263445,0.046521}
{-1.272918,-2.468144,0.231218}
{0.216186,0.693948,0.317057}
{-1.733945,-4.487412,0.092429}
{1.063566,-1.527616,0.11196}
{-1.361585,-2.55651,0.148917}
{-0.017335,0.542637,0.403911}
{-1.518468,-3.46374,0.057056}
{0.784395,-1.753615,0.136499}
{-1.243376,-2.401409,0.073595}
{-0.45373,0.328936,0.385449}
{-1.836862,-3.925189,0.078074}
{0.498968,-1.977385,0.137208}
{-1.096376,-2.28602,0.048364}
{-0.310516,-0.038495,0.048281}
{-1.698209,-3.5683,0.064897}
{0.258733,-2.144926,0.130376}
{-6.562984,0.286432,-1.898575}
{-1.348331,-2.652895,0.024171}
{-1.597818,-3.157806,0.051049}
{0.023748,-2.293196,0.120479}
{-5.417412,-0.083055,-0.529846}
{-1.269713,-2.539715,0.026346}
{-1.82829,-3.456927,0.055387}
{-0.171321,-2.433964,0.11912}
{-4.565567,-0.660066,-0.1403}
{-1.364364,-2.749955,0.022279}
{-1.881336,-3.561028,0.057572}
{-0.331638,-2.56161,0.124872}
{-3.95746,-1.080577,0.071053}
{-1.372907,-2.792901,0.018497}
{-1.991674,-3.642883,0.055907}
{-0.465421,-2.698031,0.140378}
{-3.612739,-1.533328,0.205928}
{-1.370933,-1.674693,-0.029312}
{-2.288141,-4.131494,0.060775}
{-0.580746,-2.835203,0.169449}
{-3.367649,-1.982767,0.29043}
{-1.588205,-3.076251,0.029158}
{-1.25073,-1.637574,-0.05515}
{-0.691855,-2.984915,0.21021}
{-3.198009,-2.44335,0.309146}
{-1.551549,-1.554147,-0.048107}
{-1.718161,-3.24671,0.032852}
{-0.810296,-3.167294,0.254363}
{-3.080934,-2.652332,0.235375}
{-1.081697,-1.382423,-0.075032}
{-1.656991,-3.194192,0.02681}
{-0.924629,-3.25262,0.237995}
{-1.770446,-2.374595,0.073343}
{-1.579611,-1.281815,-0.076783}
{-1.641241,-3.198857,0.02174}
{-1.023132,-3.361568,0.158987}
{-1.983365,-2.537094,0.067667}
{-1.316864,-1.274809,-0.095195}
{-2.21044,-4.107432,0.023555}
{-1.025472,-3.135299,0.043061}
{-2.495882,-2.947391,0.051926}
{-1.558387,-1.128949,-0.149848}
{-1.670725,-3.248592,0.021528}
{-0.983315,-2.848372,0.02722}
{-1.748008,-2.586156,0.047881}
{-1.448457,-1.026562,-0.158349}
{-1.468988,-2.972127,0.019981}
{-1.011054,-2.850827,0.022755}
{-1.968971,-2.812249,0.043046}
{-1.894041,-0.630061,-0.289672}
{-1.793569,-3.565026,0.02234}
{-1.090439,-3.012877,0.01876}
{-1.614063,-2.653433,0.030774}
{-1.866679,-0.371407,-0.278576}
{-0.319124,-3.517096,-0.019724}
{-1.129023,-3.127395,0.015361}
{-2.156856,-3.264622,0.019278}
{-1.756775,-0.038199,-0.23009}
{-0.417519,-2.968418,-0.099627}
{-1.011831,-2.67566,0.016558}
{-0.366366,-0.496049,0.081591}
{-1.615821,0.300972,-0.208333}
{-0.379381,-3.355513,-0.072074}
{-1.180912,-3.136025,0.011537}
{-0.286033,-0.177568,0.072143}
{-0.365024,-3.408992,-0.074361}
{-0.129155,-0.327787,0.081052}
{-0.426814,-2.967325,-0.124403}
{-1.235892,-2.438574,0.008168}
{-0.085465,0.068363,0.05894}
{-0.357386,-3.059417,-0.122668}
{-0.005409,-0.086209,0.09279}
{-0.299167,-3.064917,-0.118906}
{-0.219495,0.346555,0.105579}
{-1.238025,-2.484727,0.008961}
{-0.218486,-3.093529,-0.115374}
{-0.055637,0.089429,0.135851}
{-0.18928,-3.173083,-0.103378}
{-0.17889,0.894543,0.136236}
{-0.050212,1.06111,0.158057}
{-0.364142,-2.831663,-0.125462}
{-0.048003,1.434538,0.152065}
{-0.338592,-2.804366,-0.12712}
{-0.006011,1.641117,0.180449}
{-0.158723,-2.941622,-0.117419}
{-0.036966,1.793251,0.223697}
{-0.071649,1.737689,0.219088}
{-0.078185,-2.943282,-0.111693}
{-0.132839,1.646384,0.223031}
{0.179153,-3.083225,-0.096271}
{-0.197582,-2.749766,-0.139628}
{-0.267551,1.406099,0.271475}
{0.177073,-3.005208,-0.104132}
{-0.492844,0.909258,0.255953}
{-0.026776,-2.897242,-0.105571}
{-0.259647,0.167254,0.029477}
{-0.040083,-2.855412,-0.101506}
{-4.702037,0.605575,-2.067777}
{-0.132914,-2.831221,-0.087936}
{-0.23827,-2.778614,-0.09122}
{-4.268551,0.279978,-0.6378}
{-0.257344,-2.763177,-0.092423}
{-3.776253,-0.386473,-0.203083}
{-0.164732,-2.809591,-0.077761}
{-3.457995,-0.869381,0.044522}
{-0.114267,-2.885091,-0.048865}
{-3.2452,-1.337281,0.184011}
{-0.121083,-2.950432,-0.025417}
{-3.099469,-1.79598,0.272789}
{-1.409265,-2.487998,0.024756}
{-0.320155,-2.918984,-0.024578}
{-3.056486,-2.260795,0.310474}
{-1.242055,-2.541282,0.001013}
{-3.026719,-2.557858,0.253119}
{-0.105669,-3.116403,-0.009412}
{-1.329627,-2.499152,0.00311}
{-2.866496,-2.701597,0.129912}
{-0.138104,-3.186389,0.005352}
{-1.77247,-2.366913,0.07358}
{-1.471377,0.681762,-0.212733}
{-0.389544,-3.276132,0.02134}
{-1.891402,-2.59578,0.049137}
{-1.240555,1.083015,-0.207748}
{-0.455154,-3.466056,0.046336}
{-1.649247,-2.487737,0.048519}
{-0.904653,1.487318,-0.1244}
{-2.310286,-3.153149,0.037365}
{-0.465053,1.765688,-0.01973}
{-0.660358,-3.271912,0.039326}
{-1.622572,-2.623857,0.033386}
{0.085781,1.909955,0.050174}
{-0.694373,-3.555932,0.047858}
{-1.570298,-2.606453,0.031124}
{0.698489,1.813618,0.11642}
{-0.497722,-0.315187,0.054633}
{-0.801248,-3.521288,0.05169}
{1.286779,1.436641,0.22304}
{-0.462321,0.12874,-0.005839}
{1.812555,0.984957,0.372265}
{-1.057781,-3.562012,0.066261}
{-0.237042,-0.260872,0.09481}
{2.160422,0.400505,0.552286}
{-1.271372,-3.405982,0.070037}
{-0.347829,-0.075361,0.078183}
{2.253292,0.330649,0.710578}
{-1.280749,-3.388037,0.068425}
{-0.296712,0.057047,0.073143}
{0.675328,0.026955,0.248576}
{-0.461314,0.808428,0.084309}
{-1.381846,-3.594631,0.073245}
{-6.230102,-0.505937,-0.401099}
{-0.464812,0.467311,0.081968}
{-1.535961,-3.792216,0.078867}
{-0.448204,0.780484,0.101456}
{-0.265354,0.717441,0.120126}
{-1.627404,-3.520261,0.069208}
{-0.516072,1.717686,0.083494}
{-2.092766,-4.292014,0.099441}
{-0.400314,1.870609,0.148013}
{-0.397257,2.076013,0.180791}
{-1.834216,-3.593272,0.081395}
{-0.340547,2.050445,0.182981}
{-4.47668,-1.347109,0.207673}
{-2.190434,-3.990595,0.087135}
{-0.275952,1.924099,0.189003}
{-3.215317,-2.243034,0.360522}
{-0.244542,1.603497,0.228432}
{-2.257543,-4.076037,0.083181}
{-1.972418,-3.008221,0.404214}
{-0.235413,1.054534,0.204205}
{-1.755478,-3.220146,0.051558}
{-1.006935,-3.355829,0.350178}
{-0.04218,0.179003,-0.029198}
{-1.299917,-2.523497,-0.010899}
{-1.760139,-3.225912,0.051731}
{-0.295037,-3.446023,0.256038}
{-2.792781,0.25372,-1.946583}
{-1.793791,-2.398529,-0.010879}
{-1.783793,-3.252572,0.046238}
{0.186273,-3.392923,0.161322}
{-3.146318,0.215533,-0.481866}
{-1.452875,-2.475382,-0.057374}
{-2.035978,-3.616641,0.047935}
{0.502921,-3.269313,0.06986}
{-3.041484,-0.426811,-0.097342}
{-1.982323,-2.472952,-0.14249}
{-2.204677,-3.872623,0.050443}
{0.680951,-3.045625,-0.024303}
{-2.998343,-0.844251,0.089796}
{-2.070084,-2.376363,-0.245038}
{-1.630147,-2.980646,0.03515}
{1.073195,-2.664659,-0.070824}
{-2.948515,-1.274202,0.206255}
{-2.124326,-2.365302,-0.093952}
{-1.860356,-3.398162,0.032145}
{1.000692,-2.117858,-0.018966}
{-2.909693,-1.701007,0.285391}
{-2.197734,-2.402011,-0.04117}
{-1.540901,-2.979372,0.024298}
{0.697507,-1.746732,0.064757}
{-2.896882,-2.145327,0.313109}
{-2.298779,-2.595089,-0.03622}
{-1.792453,-3.399964,0.023014}
{0.313736,-1.582284,0.115212}
{-2.937366,-2.458184,0.266275}
{-2.388844,-2.812852,-0.046782}
{-2.08719,-3.905746,0.021377}
{-0.061021,-1.614756,0.144726}
{-1.969518,-2.107471,0.140977}
{-2.490126,-3.074204,-0.056151}
{-1.492079,-3.00722,0.021569}
{-0.362059,-1.742859,0.157409}
{-1.709621,-2.27819,0.079382}
{-2.56217,-3.383226,-0.060964}
{-0.33081,-2.999352,-0.078256}
{-0.617256,-1.909183,0.17986}
{-2.505367,-2.884157,0.051761}
{-2.614732,-3.720016,-0.044651}
{-0.17966,-3.392969,-0.028674}
{-0.843535,-2.127365,0.220201}
{-1.764052,-2.520443,0.048157}
{-2.626903,-4.144525,-0.009745}
{-0.335889,-2.984398,-0.101152}
{-1.036262,-2.350972,0.241621}
{-1.60508,-2.585395,0.035056}
{-2.544421,-4.678519,0.010633}
{-0.36194,-2.981226,-0.125589}
{-1.217278,-2.570308,0.227546}
{-1.791725,-2.75612,0.032842}
{-2.419257,-5.243213,0.016216}
{-0.214989,-3.396229,-0.102221}
{-1.307753,-2.640161,0.149245}
{-1.978959,-3.078996,0.019924}
{-1.925525,-5.791295,-0.07924}
{-0.35278,-3.028091,-0.12817}
{-1.259401,-2.511942,0.062175}
{-0.551902,-0.458293,0.076416}
{-1.646345,-6.57655,-0.149642}
{-0.242736,-3.121693,-0.12162}
{-1.077739,-2.323098,0.04786}
{-0.518902,-0.30209,0.055796}
{-0.804831,-6.992773,-0.393144}
{-0.316786,-2.838857,-0.146068}
{-1.386377,-2.733492,0.026535}
{-0.4679,-0.133539,0.071359}
{0.157015,-6.335271,-0.585587}
{-0.12922,-3.011387,-0.12747}
{-1.249407,-2.538115,0.026351}
{-0.684021,0.462023,0.028461}
{0.002363,-3.104958,-0.115448}
{0.649155,-5.911873,-0.715695}
{-1.44281,-2.921422,0.018493}
{-0.594806,-0.172591,0.058767}
{1.383793,-5.832999,-0.902555}
{-0.041511,-2.91969,-0.143436}
{-1.397525,-2.891314,0.015909}
{-0.623579,0.384611,0.08384}
{3.246808,-5.480993,-1.188552}
{0.155039,-3.154581,-0.109246}
{-1.158725,-1.672446,-0.053896}
{-0.494128,0.356234,0.074381}
{4.47266,-3.504374,-0.895358}
{-0.253198,-2.795334,-0.138067}
{-1.133971,-1.668249,-0.058072}
{-0.702178,1.085041,0.075438}
{-0.066193,-2.859396,-0.12871}
{3.819356,-2.276872,-0.393844}
{-1.14825,-1.672071,-0.057199}
{-0.372462,0.664943,0.103333}
{-0.173445,-2.770045,-0.137099}
{3.086937,-1.74279,-0.153866}
{-1.149691,-1.523242,-0.074948}
{-0.468336,0.791945,0.099788}
{-0.080895,-2.777788,-0.142888}
{2.20132,-1.675262,-0.018524}
{-0.650241,1.83656,0.122553}
{0.088813,-2.825366,-0.143195}
{-0.630929,2.00371,0.137058}
{-0.51039,1.978034,0.160922}
{-0.08637,-2.734591,-0.134881}
{1.86474,-1.56483,0.057602}
{-0.365469,1.839074,0.185443}
{0.380393,-2.846546,-0.115413}